LAMMPS data file. CGCMM style. atom_style full generated by VMD/TopoTools v1.8 on Mon Jan 08 10:52:37 MST 2024
 1182 atoms
 1807 bonds
 4848 angles
 12868 dihedrals
 0 impropers
 3 atom types
 5 bond types
 10 angle types
 13 dihedral types
 0 improper types
 -9.620985 65.379015  xlo xhi
 -9.843744 65.156256  ylo yhi
 -0.642016 74.357984  zlo zhi

# Pair Coeffs
#
# 1  C
# 2  H
# 3  Si

# Bond Coeffs
#
# 1  C-C
# 2  C-H
# 3  C-Si
# 4  H-Si
# 5  Si-Si

# Angle Coeffs
#
# 1  C-C-C
# 2  C-C-H
# 3  C-C-Si
# 4  C-Si-C
# 5  C-Si-Si
# 6  H-C-H
# 7  H-C-Si
# 8  H-Si-H
# 9  H-Si-Si
# 10  Si-Si-Si

# Dihedral Coeffs
#
# 1  C-C-C-C
# 2  C-C-C-H
# 3  C-C-C-Si
# 4  C-C-Si-C
# 5  C-C-Si-Si
# 6  C-Si-Si-C
# 7  C-Si-Si-Si
# 8  H-C-C-H
# 9  H-C-Si-C
# 10  H-C-Si-Si
# 11  H-Si-Si-H
# 12  H-Si-Si-Si
# 13  Si-Si-Si-Si

 Masses

 1 12.010700 # C
 2 1.007940 # H
 3 28.085501 # Si

 Atoms # full

1 1 3 0.000000 15.416880 29.319691 22.347370 # Si 
2 1 3 0.000000 17.333509 32.639381 22.347370 # Si 
3 1 3 0.000000 19.250130 35.959068 22.347370 # Si 
4 1 3 0.000000 17.333509 26.000000 22.347370 # Si 
5 1 3 0.000000 17.333509 26.000000 41.099850 # Si 
6 1 3 0.000000 19.250130 29.319691 22.347370 # Si 
7 1 3 0.000000 19.250130 29.319691 41.099850 # Si 
8 1 3 0.000000 21.166750 32.639381 22.347370 # Si 
9 1 3 0.000000 21.166750 32.639381 41.099850 # Si 
10 1 3 0.000000 23.083380 35.959068 22.347370 # Si 
11 1 3 0.000000 23.083380 35.959068 41.099850 # Si 
12 1 3 0.000000 25.000000 39.278759 22.347370 # Si 
13 1 3 0.000000 19.250130 22.680309 22.347370 # Si 
14 1 3 0.000000 19.250130 22.680309 41.099850 # Si 
15 1 3 0.000000 21.166750 26.000000 22.347370 # Si 
16 1 3 0.000000 21.166750 26.000000 41.099850 # Si 
17 1 3 0.000000 23.083380 29.319691 22.347370 # Si 
18 1 3 0.000000 23.083380 29.319691 41.099850 # Si 
19 1 3 0.000000 25.000000 32.639381 22.347370 # Si 
20 1 3 0.000000 25.000000 32.639381 41.099850 # Si 
21 1 3 0.000000 26.916620 35.959068 22.347370 # Si 
22 1 3 0.000000 26.916620 35.959068 41.099850 # Si 
23 1 3 0.000000 28.833250 39.278759 22.347370 # Si 
24 1 3 0.000000 21.166750 19.360620 22.347370 # Si 
25 1 3 0.000000 21.166750 19.360620 41.099850 # Si 
26 1 3 0.000000 23.083380 22.680309 22.347370 # Si 
27 1 3 0.000000 23.083380 22.680309 41.099850 # Si 
28 1 3 0.000000 25.000000 26.000000 22.347370 # Si 
29 1 3 0.000000 25.000000 26.000000 41.099850 # Si 
30 1 3 0.000000 26.916620 29.319691 22.347370 # Si 
31 1 3 0.000000 26.916620 29.319691 41.099850 # Si 
32 1 3 0.000000 28.833250 32.639381 22.347370 # Si 
33 1 3 0.000000 28.833250 32.639381 41.099850 # Si 
34 1 3 0.000000 30.749870 35.959068 22.347370 # Si 
35 1 3 0.000000 30.749870 35.959068 41.099850 # Si 
36 1 3 0.000000 32.666489 39.278759 22.347370 # Si 
37 1 3 0.000000 23.083380 16.040930 22.347370 # Si 
38 1 3 0.000000 25.000000 19.360620 22.347370 # Si 
39 1 3 0.000000 25.000000 19.360620 41.099850 # Si 
40 1 3 0.000000 26.916620 22.680309 22.347370 # Si 
41 1 3 0.000000 26.916620 22.680309 41.099850 # Si 
42 1 3 0.000000 28.833250 26.000000 22.347370 # Si 
43 1 3 0.000000 28.833250 26.000000 41.099850 # Si 
44 1 3 0.000000 30.749870 29.319691 22.347370 # Si 
45 1 3 0.000000 30.749870 29.319691 41.099850 # Si 
46 1 3 0.000000 32.666489 32.639381 22.347370 # Si 
47 1 3 0.000000 32.666489 32.639381 41.099850 # Si 
48 1 3 0.000000 34.583118 35.959068 22.347370 # Si 
49 1 3 0.000000 34.583118 35.959068 41.099850 # Si 
50 1 3 0.000000 26.916620 16.040930 22.347370 # Si 
51 1 3 0.000000 28.833250 19.360620 22.347370 # Si 
52 1 3 0.000000 28.833250 19.360620 41.099850 # Si 
53 1 3 0.000000 30.749870 22.680309 22.347370 # Si 
54 1 3 0.000000 30.749870 22.680309 41.099850 # Si 
55 1 3 0.000000 32.666489 26.000000 22.347370 # Si 
56 1 3 0.000000 32.666489 26.000000 41.099850 # Si 
57 1 3 0.000000 34.583118 29.319691 22.347370 # Si 
58 1 3 0.000000 34.583118 29.319691 41.099850 # Si 
59 1 3 0.000000 36.499741 32.639381 22.347370 # Si 
60 1 3 0.000000 36.499741 32.639381 41.099850 # Si 
61 1 3 0.000000 30.749870 16.040930 22.347370 # Si 
62 1 3 0.000000 32.666489 19.360620 22.347370 # Si 
63 1 3 0.000000 32.666489 19.360620 41.099850 # Si 
64 1 3 0.000000 34.583118 22.680309 22.347370 # Si 
65 1 3 0.000000 34.583118 22.680309 41.099850 # Si 
66 1 3 0.000000 36.499741 26.000000 22.347370 # Si 
67 1 3 0.000000 36.499741 26.000000 41.099850 # Si 
68 1 3 0.000000 38.416359 29.319691 22.347370 # Si 
69 1 3 0.000000 38.416359 29.319691 41.099850 # Si 
70 1 3 0.000000 36.499741 19.360620 22.347370 # Si 
71 1 3 0.000000 38.416370 22.680309 22.347370 # Si 
72 1 3 0.000000 40.332989 26.000000 22.347370 # Si 
73 1 3 0.000000 15.416880 27.106560 23.129829 # Si 
74 1 3 0.000000 17.333509 30.426250 23.129829 # Si 
75 1 3 0.000000 19.250130 33.745941 23.129829 # Si 
76 1 3 0.000000 21.166750 37.065632 23.129829 # Si 
77 1 3 0.000000 23.083370 40.385319 23.129829 # Si 
78 1 3 0.000000 17.333509 23.786869 23.129829 # Si 
79 1 3 0.000000 19.250130 27.106560 23.129829 # Si 
80 1 3 0.000000 19.250130 27.106560 41.882301 # Si 
81 1 3 0.000000 21.166750 30.426250 23.129829 # Si 
82 1 3 0.000000 21.166750 30.426250 41.882301 # Si 
83 1 3 0.000000 23.083380 33.745941 23.129829 # Si 
84 1 3 0.000000 23.083380 33.745941 41.882301 # Si 
85 1 3 0.000000 25.000000 37.065632 23.129829 # Si 
86 1 3 0.000000 25.000000 37.065632 41.882301 # Si 
87 1 3 0.000000 26.916620 40.385319 23.129829 # Si 
88 1 3 0.000000 19.250130 20.467180 23.129829 # Si 
89 1 3 0.000000 21.166750 23.786869 23.129829 # Si 
90 1 3 0.000000 21.166750 23.786869 41.882301 # Si 
91 1 3 0.000000 23.083380 27.106560 23.129829 # Si 
92 1 3 0.000000 23.083380 27.106560 41.882301 # Si 
93 1 3 0.000000 25.000000 30.426250 23.129829 # Si 
94 1 3 0.000000 25.000000 30.426250 41.882301 # Si 
95 1 3 0.000000 26.916620 33.745941 23.129829 # Si 
96 1 3 0.000000 26.916620 33.745941 41.882301 # Si 
97 1 3 0.000000 28.833250 37.065632 23.129829 # Si 
98 1 3 0.000000 28.833250 37.065632 41.882301 # Si 
99 1 3 0.000000 30.749870 40.385319 23.129829 # Si 
100 1 3 0.000000 21.166750 17.147490 23.129829 # Si 
101 1 3 0.000000 23.083380 20.467180 23.129829 # Si 
102 1 3 0.000000 23.083380 20.467180 41.882301 # Si 
103 1 3 0.000000 25.000000 23.786869 23.129829 # Si 
104 1 3 0.000000 25.000000 23.786869 41.882301 # Si 
105 1 3 0.000000 26.916620 27.106560 23.129829 # Si 
106 1 3 0.000000 26.916620 27.106560 41.882301 # Si 
107 1 3 0.000000 28.833250 30.426250 23.129829 # Si 
108 1 3 0.000000 28.833250 30.426250 41.882301 # Si 
109 1 3 0.000000 30.749870 33.745941 23.129829 # Si 
110 1 3 0.000000 30.749870 33.745941 41.882301 # Si 
111 1 3 0.000000 32.666489 37.065632 23.129829 # Si 
112 1 3 0.000000 32.666489 37.065632 41.882301 # Si 
113 1 3 0.000000 25.000000 17.147490 23.129829 # Si 
114 1 3 0.000000 26.916620 20.467180 23.129829 # Si 
115 1 3 0.000000 26.916620 20.467180 41.882301 # Si 
116 1 3 0.000000 28.833250 23.786869 23.129829 # Si 
117 1 3 0.000000 28.833250 23.786869 41.882301 # Si 
118 1 3 0.000000 30.749870 27.106560 23.129829 # Si 
119 1 3 0.000000 30.749870 27.106560 41.882301 # Si 
120 1 3 0.000000 32.666489 30.426250 23.129829 # Si 
121 1 3 0.000000 32.666489 30.426250 41.882301 # Si 
122 1 3 0.000000 34.583118 33.745941 23.129829 # Si 
123 1 3 0.000000 34.583118 33.745941 41.882301 # Si 
124 1 3 0.000000 36.499741 37.065632 23.129829 # Si 
125 1 3 0.000000 28.833250 17.147490 23.129829 # Si 
126 1 3 0.000000 30.749870 20.467180 23.129829 # Si 
127 1 3 0.000000 30.749870 20.467180 41.882301 # Si 
128 1 3 0.000000 32.666489 23.786869 23.129829 # Si 
129 1 3 0.000000 32.666489 23.786869 41.882301 # Si 
130 1 3 0.000000 34.583118 27.106560 23.129829 # Si 
131 1 3 0.000000 34.583118 27.106560 41.882301 # Si 
132 1 3 0.000000 36.499741 30.426250 23.129829 # Si 
133 1 3 0.000000 36.499741 30.426250 41.882301 # Si 
134 1 3 0.000000 38.416359 33.745941 23.129829 # Si 
135 1 3 0.000000 32.666489 17.147490 23.129829 # Si 
136 1 3 0.000000 34.583118 20.467180 23.129829 # Si 
137 1 3 0.000000 34.583118 20.467180 41.882301 # Si 
138 1 3 0.000000 36.499741 23.786869 23.129829 # Si 
139 1 3 0.000000 36.499741 23.786869 41.882301 # Si 
140 1 3 0.000000 38.416359 27.106560 23.129829 # Si 
141 1 3 0.000000 38.416359 27.106560 41.882301 # Si 
142 1 3 0.000000 40.332989 30.426250 23.129829 # Si 
143 1 3 0.000000 36.499741 17.147490 23.129829 # Si 
144 1 3 0.000000 38.416359 20.467180 23.129829 # Si 
145 1 3 0.000000 40.332989 23.786869 23.129829 # Si 
146 1 3 0.000000 13.500260 30.426250 25.477209 # Si 
147 1 3 0.000000 15.416880 33.745941 25.477209 # Si 
148 1 3 0.000000 17.333500 37.065632 25.477209 # Si 
149 1 3 0.000000 15.416880 27.106560 25.477209 # Si 
150 1 3 0.000000 17.333509 30.426250 25.477209 # Si 
151 1 3 0.000000 19.250130 33.745941 25.477209 # Si 
152 1 3 0.000000 21.166750 37.065632 25.477209 # Si 
153 1 3 0.000000 23.083370 40.385319 25.477209 # Si 
154 1 3 0.000000 17.333509 23.786869 25.477209 # Si 
155 1 3 0.000000 19.250130 27.106560 25.477209 # Si 
156 1 3 0.000000 21.166750 30.426250 25.477209 # Si 
157 1 3 0.000000 21.166750 30.426250 44.229679 # Si 
158 1 3 0.000000 23.083380 33.745941 25.477209 # Si 
159 1 3 0.000000 23.083380 33.745941 44.229679 # Si 
160 1 3 0.000000 25.000000 37.065632 25.477209 # Si 
161 1 3 0.000000 26.916620 40.385319 25.477209 # Si 
162 1 3 0.000000 19.250130 20.467180 25.477209 # Si 
163 1 3 0.000000 21.166750 23.786869 25.477209 # Si 
164 1 3 0.000000 21.166750 23.786869 44.229679 # Si 
165 1 3 0.000000 23.083380 27.106560 25.477209 # Si 
166 1 3 0.000000 23.083380 27.106560 44.229679 # Si 
167 1 3 0.000000 25.000000 30.426250 25.477209 # Si 
168 1 3 0.000000 25.000000 30.426250 44.229679 # Si 
169 1 3 0.000000 26.916620 33.745941 25.477209 # Si 
170 1 3 0.000000 26.916620 33.745941 44.229679 # Si 
171 1 3 0.000000 28.833250 37.065632 25.477209 # Si 
172 1 3 0.000000 30.749870 40.385319 25.477209 # Si 
173 1 3 0.000000 21.166750 17.147490 25.477209 # Si 
174 1 3 0.000000 23.083380 20.467180 25.477209 # Si 
175 1 3 0.000000 25.000000 23.786869 25.477209 # Si 
176 1 3 0.000000 25.000000 23.786869 44.229679 # Si 
177 1 3 0.000000 26.916620 27.106560 25.477209 # Si 
178 1 3 0.000000 26.916620 27.106560 44.229679 # Si 
179 1 3 0.000000 28.833250 30.426250 25.477209 # Si 
180 1 3 0.000000 28.833250 30.426250 44.229679 # Si 
181 1 3 0.000000 30.749870 33.745941 25.477209 # Si 
182 1 3 0.000000 30.749870 33.745941 44.229679 # Si 
183 1 3 0.000000 32.666489 37.065632 25.477209 # Si 
184 1 3 0.000000 34.583118 40.385319 25.477209 # Si 
185 1 3 0.000000 23.083380 13.827810 25.477209 # Si 
186 1 3 0.000000 25.000000 17.147490 25.477209 # Si 
187 1 3 0.000000 26.916620 20.467180 25.477209 # Si 
188 1 3 0.000000 28.833250 23.786869 25.477209 # Si 
189 1 3 0.000000 28.833250 23.786869 44.229679 # Si 
190 1 3 0.000000 30.749870 27.106560 25.477209 # Si 
191 1 3 0.000000 30.749870 27.106560 44.229679 # Si 
192 1 3 0.000000 32.666489 30.426250 25.477209 # Si 
193 1 3 0.000000 32.666489 30.426250 44.229679 # Si 
194 1 3 0.000000 34.583118 33.745941 25.477209 # Si 
195 1 3 0.000000 36.499741 37.065632 25.477209 # Si 
196 1 3 0.000000 26.916620 13.827810 25.477209 # Si 
197 1 3 0.000000 28.833250 17.147490 25.477209 # Si 
198 1 3 0.000000 30.749870 20.467180 25.477209 # Si 
199 1 3 0.000000 32.666489 23.786869 25.477209 # Si 
200 1 3 0.000000 32.666489 23.786869 44.229679 # Si 
201 1 3 0.000000 34.583118 27.106560 25.477209 # Si 
202 1 3 0.000000 34.583118 27.106560 44.229679 # Si 
203 1 3 0.000000 36.499741 30.426250 25.477209 # Si 
204 1 3 0.000000 38.416359 33.745941 25.477209 # Si 
205 1 3 0.000000 30.749870 13.827810 25.477209 # Si 
206 1 3 0.000000 32.666489 17.147490 25.477209 # Si 
207 1 3 0.000000 34.583118 20.467180 25.477209 # Si 
208 1 3 0.000000 36.499741 23.786869 25.477209 # Si 
209 1 3 0.000000 38.416359 27.106560 25.477209 # Si 
210 1 3 0.000000 40.332989 30.426250 25.477209 # Si 
211 1 3 0.000000 36.499741 17.147490 25.477209 # Si 
212 1 3 0.000000 38.416359 20.467180 25.477209 # Si 
213 1 3 0.000000 40.332989 23.786869 25.477209 # Si 
214 1 3 0.000000 42.249611 27.106560 25.477209 # Si 
215 1 3 0.000000 13.500260 28.213131 26.259670 # Si 
216 1 3 0.000000 15.416880 31.532820 26.259670 # Si 
217 1 3 0.000000 17.333509 34.852509 26.259670 # Si 
218 1 3 0.000000 19.250130 38.172199 26.259670 # Si 
219 1 3 0.000000 15.416880 24.893440 26.259670 # Si 
220 1 3 0.000000 17.333509 28.213131 26.259670 # Si 
221 1 3 0.000000 19.250130 31.532820 26.259670 # Si 
222 1 3 0.000000 21.166750 34.852509 26.259670 # Si 
223 1 3 0.000000 23.083380 38.172199 26.259670 # Si 
224 1 3 0.000000 25.000000 41.491879 26.259670 # Si 
225 1 3 0.000000 17.333509 21.573750 26.259670 # Si 
226 1 3 0.000000 19.250130 24.893440 26.259670 # Si 
227 1 3 0.000000 21.166750 28.213131 26.259670 # Si 
228 1 3 0.000000 23.083380 31.532820 26.259670 # Si 
229 1 3 0.000000 23.083380 31.532820 45.012138 # Si 
230 1 3 0.000000 25.000000 34.852509 26.259670 # Si 
231 1 3 0.000000 26.916620 38.172199 26.259670 # Si 
232 1 3 0.000000 28.833250 41.491879 26.259670 # Si 
233 1 3 0.000000 19.250130 18.254061 26.259670 # Si 
234 1 3 0.000000 21.166750 21.573750 26.259670 # Si 
235 1 3 0.000000 23.083380 24.893440 26.259670 # Si 
236 1 3 0.000000 23.083380 24.893440 45.012138 # Si 
237 1 3 0.000000 25.000000 28.213131 26.259670 # Si 
238 1 3 0.000000 25.000000 28.213131 45.012138 # Si 
239 1 3 0.000000 26.916620 31.532820 26.259670 # Si 
240 1 3 0.000000 26.916620 31.532820 45.012138 # Si 
241 1 3 0.000000 28.833250 34.852509 26.259670 # Si 
242 1 3 0.000000 30.749870 38.172199 26.259670 # Si 
243 1 3 0.000000 32.666489 41.491879 26.259670 # Si 
244 1 3 0.000000 21.166750 14.934370 26.259670 # Si 
245 1 3 0.000000 23.083380 18.254061 26.259670 # Si 
246 1 3 0.000000 25.000000 21.573750 26.259670 # Si 
247 1 3 0.000000 26.916620 24.893440 26.259670 # Si 
248 1 3 0.000000 26.916620 24.893440 45.012138 # Si 
249 1 3 0.000000 28.833250 28.213131 26.259670 # Si 
250 1 3 0.000000 28.833250 28.213131 45.012138 # Si 
251 1 3 0.000000 30.749870 31.532820 26.259670 # Si 
252 1 3 0.000000 30.749870 31.532820 45.012138 # Si 
253 1 3 0.000000 32.666489 34.852509 26.259670 # Si 
254 1 3 0.000000 34.583118 38.172199 26.259670 # Si 
255 1 3 0.000000 25.000000 14.934370 26.259670 # Si 
256 1 3 0.000000 26.916620 18.254061 26.259670 # Si 
257 1 3 0.000000 28.833250 21.573750 26.259670 # Si 
258 1 3 0.000000 30.749870 24.893440 26.259670 # Si 
259 1 3 0.000000 30.749870 24.893440 45.012138 # Si 
260 1 3 0.000000 32.666489 28.213131 26.259670 # Si 
261 1 3 0.000000 32.666489 28.213131 45.012138 # Si 
262 1 3 0.000000 34.583118 31.532820 26.259670 # Si 
263 1 3 0.000000 36.499741 34.852509 26.259670 # Si 
264 1 3 0.000000 38.416359 38.172199 26.259670 # Si 
265 1 3 0.000000 28.833250 14.934370 26.259670 # Si 
266 1 3 0.000000 30.749870 18.254061 26.259670 # Si 
267 1 3 0.000000 32.666489 21.573750 26.259670 # Si 
268 1 3 0.000000 34.583118 24.893440 26.259670 # Si 
269 1 3 0.000000 36.499741 28.213131 26.259670 # Si 
270 1 3 0.000000 38.416359 31.532820 26.259670 # Si 
271 1 3 0.000000 40.332989 34.852509 26.259670 # Si 
272 1 3 0.000000 32.666500 14.934370 26.259670 # Si 
273 1 3 0.000000 34.583118 18.254061 26.259670 # Si 
274 1 3 0.000000 36.499741 21.573750 26.259670 # Si 
275 1 3 0.000000 38.416359 24.893440 26.259670 # Si 
276 1 3 0.000000 40.332989 28.213131 26.259670 # Si 
277 1 3 0.000000 42.249611 31.532820 26.259670 # Si 
278 1 3 0.000000 38.416370 18.254061 26.259670 # Si 
279 1 3 0.000000 40.332989 21.573750 26.259670 # Si 
280 1 3 0.000000 42.249611 24.893440 26.259670 # Si 
281 1 3 0.000000 13.503110 28.210951 28.605160 # Si 
282 1 3 0.000000 15.419740 31.530640 28.605160 # Si 
283 1 3 0.000000 17.336361 34.850330 28.605160 # Si 
284 1 3 0.000000 19.252979 38.170021 28.605160 # Si 
285 1 3 0.000000 15.419740 24.891260 28.605160 # Si 
286 1 3 0.000000 17.336361 28.210951 28.605160 # Si 
287 1 3 0.000000 19.252979 31.530640 28.605160 # Si 
288 1 3 0.000000 21.169609 34.850330 28.605160 # Si 
289 1 3 0.000000 23.086229 38.170021 28.605160 # Si 
290 1 3 0.000000 25.002850 41.489712 28.605160 # Si 
291 1 3 0.000000 17.336361 21.571569 28.605160 # Si 
292 1 3 0.000000 19.252991 24.891260 28.605160 # Si 
293 1 3 0.000000 21.169609 28.210951 28.605160 # Si 
294 1 3 0.000000 23.086229 31.530640 28.605160 # Si 
295 1 3 0.000000 25.002850 34.850330 28.605160 # Si 
296 1 3 0.000000 26.919479 38.170021 28.605160 # Si 
297 1 3 0.000000 28.836100 41.489712 28.605160 # Si 
298 1 3 0.000000 19.252991 18.251881 28.605160 # Si 
299 1 3 0.000000 21.169609 21.571569 28.605160 # Si 
300 1 3 0.000000 23.086229 24.891260 28.605160 # Si 
301 1 3 0.000000 25.002859 28.210951 28.605160 # Si 
302 1 3 0.000000 26.919479 31.530640 28.605160 # Si 
303 1 3 0.000000 28.836100 34.850330 28.605160 # Si 
304 1 3 0.000000 30.752720 38.170021 28.605160 # Si 
305 1 3 0.000000 32.669350 41.489712 28.605160 # Si 
306 1 3 0.000000 21.169609 14.932190 28.605160 # Si 
307 1 3 0.000000 23.086229 18.251881 28.605160 # Si 
308 1 3 0.000000 25.002859 21.571569 28.605160 # Si 
309 1 3 0.000000 26.919479 24.891260 28.605160 # Si 
310 1 3 0.000000 28.836100 28.210951 28.605160 # Si 
311 1 3 0.000000 30.752729 31.530640 28.605160 # Si 
312 1 3 0.000000 32.669350 34.850330 28.605160 # Si 
313 1 3 0.000000 34.585972 38.170021 28.605160 # Si 
314 1 3 0.000000 25.002859 14.932190 28.605160 # Si 
315 1 3 0.000000 26.919479 18.251881 28.605160 # Si 
316 1 3 0.000000 28.836100 21.571569 28.605160 # Si 
317 1 3 0.000000 30.752729 24.891260 28.605160 # Si 
318 1 3 0.000000 32.669350 28.210951 28.605160 # Si 
319 1 3 0.000000 34.585972 31.530640 28.605160 # Si 
320 1 3 0.000000 36.502602 34.850330 28.605160 # Si 
321 1 3 0.000000 38.419220 38.170021 28.605160 # Si 
322 1 3 0.000000 28.836100 14.932190 28.605160 # Si 
323 1 3 0.000000 30.752729 18.251881 28.605160 # Si 
324 1 3 0.000000 32.669350 21.571569 28.605160 # Si 
325 1 3 0.000000 34.585972 24.891260 28.605160 # Si 
326 1 3 0.000000 36.502602 28.210951 28.605160 # Si 
327 1 3 0.000000 38.419220 31.530640 28.605160 # Si 
328 1 3 0.000000 40.335838 34.850330 28.605160 # Si 
329 1 3 0.000000 32.669350 14.932190 28.605160 # Si 
330 1 3 0.000000 34.585972 18.251881 28.605160 # Si 
331 1 3 0.000000 36.502602 21.571569 28.605160 # Si 
332 1 3 0.000000 38.419220 24.891260 28.605160 # Si 
333 1 3 0.000000 40.335838 28.210951 28.605160 # Si 
334 1 3 0.000000 42.252468 31.530640 28.605160 # Si 
335 1 3 0.000000 38.419220 18.251881 28.605160 # Si 
336 1 3 0.000000 40.335838 21.571569 28.605160 # Si 
337 1 3 0.000000 42.252468 24.891260 28.605160 # Si 
338 1 3 0.000000 13.503250 32.636921 29.387369 # Si 
339 1 3 0.000000 15.419880 35.956612 29.387369 # Si 
340 1 3 0.000000 13.503250 25.997540 29.387369 # Si 
341 1 3 0.000000 15.419880 29.317230 29.387369 # Si 
342 1 3 0.000000 17.336500 32.636921 29.387369 # Si 
343 1 3 0.000000 19.253120 35.956612 29.387369 # Si 
344 1 3 0.000000 21.169750 39.276299 29.387369 # Si 
345 1 3 0.000000 15.419880 22.677851 29.387369 # Si 
346 1 3 0.000000 17.336500 25.997540 29.387369 # Si 
347 1 3 0.000000 19.253120 29.317230 29.387369 # Si 
348 1 3 0.000000 21.169750 32.636921 29.387369 # Si 
349 1 3 0.000000 23.086370 35.956612 29.387369 # Si 
350 1 3 0.000000 25.002991 39.276299 29.387369 # Si 
351 1 3 0.000000 26.919621 42.595982 29.387369 # Si 
352 1 3 0.000000 17.336500 19.358160 29.387369 # Si 
353 1 3 0.000000 19.253120 22.677851 29.387369 # Si 
354 1 3 0.000000 21.169750 25.997540 29.387369 # Si 
355 1 3 0.000000 23.086370 29.317230 29.387369 # Si 
356 1 3 0.000000 25.002991 32.636921 29.387369 # Si 
357 1 3 0.000000 26.919621 35.956612 29.387369 # Si 
358 1 3 0.000000 28.836241 39.276299 29.387369 # Si 
359 1 3 0.000000 30.752859 42.595982 29.387369 # Si 
360 1 3 0.000000 19.253120 16.038469 29.387369 # Si 
361 1 3 0.000000 21.169750 19.358160 29.387369 # Si 
362 1 3 0.000000 23.086370 22.677851 29.387369 # Si 
363 1 3 0.000000 25.002991 25.997540 29.387369 # Si 
364 1 3 0.000000 26.919621 29.317230 29.387369 # Si 
365 1 3 0.000000 28.836241 32.636921 29.387369 # Si 
366 1 3 0.000000 30.752859 35.956612 29.387369 # Si 
367 1 3 0.000000 32.669491 39.276299 29.387369 # Si 
368 1 3 0.000000 23.086370 16.038469 29.387369 # Si 
369 1 3 0.000000 25.002991 19.358160 29.387369 # Si 
370 1 3 0.000000 26.919621 22.677851 29.387369 # Si 
371 1 3 0.000000 28.836241 25.997540 29.387369 # Si 
372 1 3 0.000000 30.752859 29.317230 29.387369 # Si 
373 1 3 0.000000 32.669491 32.636921 29.387369 # Si 
374 1 3 0.000000 34.586109 35.956612 29.387369 # Si 
375 1 3 0.000000 36.502731 39.276299 29.387369 # Si 
376 1 3 0.000000 25.002991 12.718780 29.387369 # Si 
377 1 3 0.000000 26.919621 16.038469 29.387369 # Si 
378 1 3 0.000000 28.836241 19.358160 29.387369 # Si 
379 1 3 0.000000 30.752859 22.677851 29.387369 # Si 
380 1 3 0.000000 32.669491 25.997540 29.387369 # Si 
381 1 3 0.000000 34.586109 29.317230 29.387369 # Si 
382 1 3 0.000000 36.502731 32.636921 29.387369 # Si 
383 1 3 0.000000 38.419361 35.956612 29.387369 # Si 
384 1 3 0.000000 28.836241 12.718780 29.387369 # Si 
385 1 3 0.000000 30.752871 16.038469 29.387369 # Si 
386 1 3 0.000000 32.669491 19.358160 29.387369 # Si 
387 1 3 0.000000 34.586109 22.677851 29.387369 # Si 
388 1 3 0.000000 36.502731 25.997540 29.387369 # Si 
389 1 3 0.000000 38.419361 29.317230 29.387369 # Si 
390 1 3 0.000000 40.335979 32.636921 29.387369 # Si 
391 1 3 0.000000 34.586109 16.038469 29.387369 # Si 
392 1 3 0.000000 36.502739 19.358160 29.387369 # Si 
393 1 3 0.000000 38.419361 22.677851 29.387369 # Si 
394 1 3 0.000000 40.335979 25.997540 29.387369 # Si 
395 1 3 0.000000 42.252602 29.317230 29.387369 # Si 
396 1 3 0.000000 40.335979 19.358160 29.387369 # Si 
397 1 3 0.000000 42.252602 22.677851 29.387369 # Si 
398 1 3 0.000000 13.505320 32.634769 31.731960 # Si 
399 1 3 0.000000 15.421940 35.954460 31.731960 # Si 
400 1 3 0.000000 13.505320 25.995390 31.731960 # Si 
401 1 3 0.000000 15.421940 29.315081 31.731960 # Si 
402 1 3 0.000000 17.338570 32.634769 31.731960 # Si 
403 1 3 0.000000 19.255190 35.954460 31.731960 # Si 
404 1 3 0.000000 21.171810 39.274151 31.731960 # Si 
405 1 3 0.000000 15.421940 22.675699 31.731960 # Si 
406 1 3 0.000000 17.338570 25.995390 31.731960 # Si 
407 1 3 0.000000 19.255190 29.315081 31.731960 # Si 
408 1 3 0.000000 21.171810 32.634769 31.731960 # Si 
409 1 3 0.000000 23.088440 35.954460 31.731960 # Si 
410 1 3 0.000000 25.005060 39.274151 31.731960 # Si 
411 1 3 0.000000 26.921680 42.593842 31.731960 # Si 
412 1 3 0.000000 17.338570 19.356010 31.731960 # Si 
413 1 3 0.000000 19.255190 22.675699 31.731960 # Si 
414 1 3 0.000000 21.171820 25.995390 31.731960 # Si 
415 1 3 0.000000 23.088440 29.315081 31.731960 # Si 
416 1 3 0.000000 25.005060 32.634769 31.731960 # Si 
417 1 3 0.000000 26.921690 35.954460 31.731960 # Si 
418 1 3 0.000000 28.838310 39.274151 31.731960 # Si 
419 1 3 0.000000 30.754930 42.593842 31.731960 # Si 
420 1 3 0.000000 19.255190 16.036320 31.731960 # Si 
421 1 3 0.000000 21.171820 19.356010 31.731960 # Si 
422 1 3 0.000000 23.088440 22.675699 31.731960 # Si 
423 1 3 0.000000 25.005060 25.995390 31.731960 # Si 
424 1 3 0.000000 26.921690 29.315081 31.731960 # Si 
425 1 3 0.000000 28.838310 32.634769 31.731960 # Si 
426 1 3 0.000000 30.754930 35.954460 31.731960 # Si 
427 1 3 0.000000 32.671551 39.274151 31.731960 # Si 
428 1 3 0.000000 23.088440 16.036320 31.731960 # Si 
429 1 3 0.000000 25.005060 19.356010 31.731960 # Si 
430 1 3 0.000000 26.921690 22.675699 31.731960 # Si 
431 1 3 0.000000 28.838310 25.995390 31.731960 # Si 
432 1 3 0.000000 30.754930 29.315081 31.731960 # Si 
433 1 3 0.000000 32.671551 32.634769 31.731960 # Si 
434 1 3 0.000000 34.588181 35.954460 31.731960 # Si 
435 1 3 0.000000 36.504799 39.274151 31.731960 # Si 
436 1 3 0.000000 25.005060 12.716630 31.731960 # Si 
437 1 3 0.000000 26.921690 16.036320 31.731960 # Si 
438 1 3 0.000000 28.838310 19.356010 31.731960 # Si 
439 1 3 0.000000 30.754930 22.675699 31.731960 # Si 
440 1 3 0.000000 32.671558 25.995390 31.731960 # Si 
441 1 3 0.000000 34.588181 29.315081 31.731960 # Si 
442 1 3 0.000000 36.504799 32.634769 31.731960 # Si 
443 1 3 0.000000 38.421421 35.954460 31.731960 # Si 
444 1 3 0.000000 28.838310 12.716630 31.731960 # Si 
445 1 3 0.000000 30.754930 16.036320 31.731960 # Si 
446 1 3 0.000000 32.671558 19.356010 31.731960 # Si 
447 1 3 0.000000 34.588181 22.675699 31.731960 # Si 
448 1 3 0.000000 36.504799 25.995390 31.731960 # Si 
449 1 3 0.000000 38.421429 29.315081 31.731960 # Si 
450 1 3 0.000000 40.338051 32.634769 31.731960 # Si 
451 1 3 0.000000 34.588181 16.036320 31.731960 # Si 
452 1 3 0.000000 36.504799 19.356010 31.731960 # Si 
453 1 3 0.000000 38.421429 22.675699 31.731960 # Si 
454 1 3 0.000000 40.338051 25.995390 31.731960 # Si 
455 1 3 0.000000 42.254669 29.315081 31.731960 # Si 
456 1 3 0.000000 40.338051 19.356010 31.731960 # Si 
457 1 3 0.000000 42.254669 22.675699 31.731960 # Si 
458 1 3 0.000000 13.505380 30.421511 32.514511 # Si 
459 1 3 0.000000 15.422000 33.741199 32.514511 # Si 
460 1 3 0.000000 17.338619 37.060890 32.514511 # Si 
461 1 3 0.000000 13.505380 23.782129 32.514511 # Si 
462 1 3 0.000000 15.422000 27.101820 32.514511 # Si 
463 1 3 0.000000 17.338619 30.421511 32.514511 # Si 
464 1 3 0.000000 19.255251 33.741199 32.514511 # Si 
465 1 3 0.000000 21.171869 37.060890 32.514511 # Si 
466 1 3 0.000000 23.088490 40.380581 32.514511 # Si 
467 1 3 0.000000 15.422000 20.462440 32.514511 # Si 
468 1 3 0.000000 17.338619 23.782129 32.514511 # Si 
469 1 3 0.000000 19.255251 27.101820 32.514511 # Si 
470 1 3 0.000000 21.171869 30.421511 32.514511 # Si 
471 1 3 0.000000 23.088490 33.741199 32.514511 # Si 
472 1 3 0.000000 25.005110 37.060890 32.514511 # Si 
473 1 3 0.000000 26.921740 40.380581 32.514511 # Si 
474 1 3 0.000000 17.338619 17.142750 32.514511 # Si 
475 1 3 0.000000 19.255251 20.462440 32.514511 # Si 
476 1 3 0.000000 21.171869 23.782129 32.514511 # Si 
477 1 3 0.000000 23.088490 27.101820 32.514511 # Si 
478 1 3 0.000000 25.005119 30.421511 32.514511 # Si 
479 1 3 0.000000 26.921740 33.741199 32.514511 # Si 
480 1 3 0.000000 28.838360 37.060890 32.514511 # Si 
481 1 3 0.000000 30.754980 40.380581 32.514511 # Si 
482 1 3 0.000000 21.171869 17.142750 32.514511 # Si 
483 1 3 0.000000 23.088490 20.462440 32.514511 # Si 
484 1 3 0.000000 25.005119 23.782129 32.514511 # Si 
485 1 3 0.000000 26.921740 27.101820 32.514511 # Si 
486 1 3 0.000000 28.838360 30.421511 32.514511 # Si 
487 1 3 0.000000 30.754990 33.741199 32.514511 # Si 
488 1 3 0.000000 32.671612 37.060890 32.514511 # Si 
489 1 3 0.000000 34.588230 40.380581 32.514511 # Si 
490 1 3 0.000000 23.088490 13.823060 32.514511 # Si 
491 1 3 0.000000 25.005119 17.142750 32.514511 # Si 
492 1 3 0.000000 26.921740 20.462440 32.514511 # Si 
493 1 3 0.000000 28.838360 23.782129 32.514511 # Si 
494 1 3 0.000000 30.754990 27.101820 32.514511 # Si 
495 1 3 0.000000 32.671612 30.421511 32.514511 # Si 
496 1 3 0.000000 34.588230 33.741199 32.514511 # Si 
497 1 3 0.000000 36.504860 37.060890 32.514511 # Si 
498 1 3 0.000000 26.921740 13.823060 32.514511 # Si 
499 1 3 0.000000 28.838360 17.142750 32.514511 # Si 
500 1 3 0.000000 30.754990 20.462440 32.514511 # Si 
501 1 3 0.000000 32.671612 23.782129 32.514511 # Si 
502 1 3 0.000000 34.588230 27.101820 32.514511 # Si 
503 1 3 0.000000 36.504860 30.421511 32.514511 # Si 
504 1 3 0.000000 38.421478 33.741199 32.514511 # Si 
505 1 3 0.000000 30.754990 13.823060 32.514511 # Si 
506 1 3 0.000000 32.671612 17.142750 32.514511 # Si 
507 1 3 0.000000 34.588230 20.462440 32.514511 # Si 
508 1 3 0.000000 36.504860 23.782129 32.514511 # Si 
509 1 3 0.000000 38.421478 27.101820 32.514511 # Si 
510 1 3 0.000000 40.338100 30.421511 32.514511 # Si 
511 1 3 0.000000 36.504860 17.142750 32.514511 # Si 
512 1 3 0.000000 38.421478 20.462440 32.514511 # Si 
513 1 3 0.000000 40.338100 23.782129 32.514511 # Si 
514 1 3 0.000000 42.254730 27.101820 32.514511 # Si 
515 1 3 0.000000 13.508480 30.419519 34.860970 # Si 
516 1 3 0.000000 15.425100 33.739208 34.860970 # Si 
517 1 3 0.000000 17.341730 37.058891 34.860970 # Si 
518 1 3 0.000000 13.508480 23.780140 34.860970 # Si 
519 1 3 0.000000 15.425110 27.099831 34.860970 # Si 
520 1 3 0.000000 17.341730 30.419519 34.860970 # Si 
521 1 3 0.000000 19.258350 33.739208 34.860970 # Si 
522 1 3 0.000000 21.174971 37.058891 34.860970 # Si 
523 1 3 0.000000 23.091600 40.378578 34.860970 # Si 
524 1 3 0.000000 15.425110 20.460449 34.860970 # Si 
525 1 3 0.000000 17.341730 23.780140 34.860970 # Si 
526 1 3 0.000000 19.258350 27.099831 34.860970 # Si 
527 1 3 0.000000 21.174971 30.419519 34.860970 # Si 
528 1 3 0.000000 23.091600 33.739208 34.860970 # Si 
529 1 3 0.000000 25.008221 37.058891 34.860970 # Si 
530 1 3 0.000000 26.924841 40.378578 34.860970 # Si 
531 1 3 0.000000 17.341730 17.140760 34.860970 # Si 
532 1 3 0.000000 19.258350 20.460449 34.860970 # Si 
533 1 3 0.000000 21.174971 23.780140 34.860970 # Si 
534 1 3 0.000000 23.091600 27.099831 16.108500 # Si 
535 1 3 0.000000 23.091600 27.099831 34.860970 # Si 
536 1 3 0.000000 25.008221 30.419519 16.108500 # Si 
537 1 3 0.000000 25.008221 30.419519 34.860970 # Si 
538 1 3 0.000000 26.924841 33.739208 34.860970 # Si 
539 1 3 0.000000 28.841471 37.058891 34.860970 # Si 
540 1 3 0.000000 30.758089 40.378578 34.860970 # Si 
541 1 3 0.000000 21.174980 17.140760 34.860970 # Si 
542 1 3 0.000000 23.091600 20.460449 34.860970 # Si 
543 1 3 0.000000 25.008221 23.780140 16.108500 # Si 
544 1 3 0.000000 25.008221 23.780140 34.860970 # Si 
545 1 3 0.000000 26.924850 27.099831 16.108500 # Si 
546 1 3 0.000000 26.924850 27.099831 34.860970 # Si 
547 1 3 0.000000 28.841471 30.419519 16.108500 # Si 
548 1 3 0.000000 28.841471 30.419519 34.860970 # Si 
549 1 3 0.000000 30.758089 33.739208 34.860970 # Si 
550 1 3 0.000000 32.674709 37.058891 34.860970 # Si 
551 1 3 0.000000 34.591339 40.378578 34.860970 # Si 