LAMMPS data file. CGCMM style. atom_style full generated by VMD/TopoTools v1.8 on Mon Jan 08 10:47:05 MST 2024

 1155 atoms
 0 bonds
 0 angles
 0 dihedrals
 0 impropers
 3 atom types
 0 bond types
 0 angle types
 0 dihedral types
 0 improper types
 5.379015 50.379015  xlo xhi
 5.156256 50.156256  ylo yhi
 10.097435 55.097435  zlo zhi

# Pair Coeffs
#
# 1  C
# 2  H
# 3  Si


 Masses

 1 12.010700 # C
 2 1.007940 # H
 3 28.085501 # Si

 Atoms # full

1  3 0.000000 15.416880 29.319691 22.347370 # Si 
2  3 0.000000 17.333509 32.639381 22.347370 # Si 
3  3 0.000000 19.250130 35.959068 22.347370 # Si 
4  3 0.000000 17.333509 26.000000 22.347370 # Si 
5  3 0.000000 17.333509 26.000000 41.099850 # Si 
6  3 0.000000 19.250130 29.319691 22.347370 # Si 
7  3 0.000000 19.250130 29.319691 41.099850 # Si 
8  3 0.000000 21.166750 32.639381 22.347370 # Si 
9  3 0.000000 21.166750 32.639381 41.099850 # Si 
10  3 0.000000 23.083380 35.959068 22.347370 # Si 
11  3 0.000000 23.083380 35.959068 41.099850 # Si 
12  3 0.000000 25.000000 39.278759 22.347370 # Si 
13  3 0.000000 19.250130 22.680309 22.347370 # Si 
14  3 0.000000 19.250130 22.680309 41.099850 # Si 
15  3 0.000000 21.166750 26.000000 22.347370 # Si 
16  3 0.000000 21.166750 26.000000 41.099850 # Si 
17  3 0.000000 23.083380 29.319691 22.347370 # Si 
18  3 0.000000 23.083380 29.319691 41.099850 # Si 
19  3 0.000000 25.000000 32.639381 22.347370 # Si 
20  3 0.000000 25.000000 32.639381 41.099850 # Si 
21  3 0.000000 26.916620 35.959068 22.347370 # Si 
22  3 0.000000 26.916620 35.959068 41.099850 # Si 
23  3 0.000000 28.833250 39.278759 22.347370 # Si 
24  3 0.000000 21.166750 19.360620 22.347370 # Si 
25  3 0.000000 21.166750 19.360620 41.099850 # Si 
26  3 0.000000 23.083380 22.680309 22.347370 # Si 
27  3 0.000000 23.083380 22.680309 41.099850 # Si 
28  3 0.000000 25.000000 26.000000 22.347370 # Si 
29  3 0.000000 25.000000 26.000000 41.099850 # Si 
30  3 0.000000 26.916620 29.319691 22.347370 # Si 
31  3 0.000000 26.916620 29.319691 41.099850 # Si 
32  3 0.000000 28.833250 32.639381 22.347370 # Si 
33  3 0.000000 28.833250 32.639381 41.099850 # Si 
34  3 0.000000 30.749870 35.959068 22.347370 # Si 
35  3 0.000000 30.749870 35.959068 41.099850 # Si 
36  3 0.000000 32.666489 39.278759 22.347370 # Si 
37  3 0.000000 23.083380 16.040930 22.347370 # Si 
38  3 0.000000 25.000000 19.360620 22.347370 # Si 
39  3 0.000000 25.000000 19.360620 41.099850 # Si 
40  3 0.000000 26.916620 22.680309 22.347370 # Si 
41  3 0.000000 26.916620 22.680309 41.099850 # Si 
42  3 0.000000 28.833250 26.000000 22.347370 # Si 
43  3 0.000000 28.833250 26.000000 41.099850 # Si 
44  3 0.000000 30.749870 29.319691 22.347370 # Si 
45  3 0.000000 30.749870 29.319691 41.099850 # Si 
46  3 0.000000 32.666489 32.639381 22.347370 # Si 
47  3 0.000000 32.666489 32.639381 41.099850 # Si 
48  3 0.000000 34.583118 35.959068 22.347370 # Si 
49  3 0.000000 34.583118 35.959068 41.099850 # Si 
50  3 0.000000 26.916620 16.040930 22.347370 # Si 
51  3 0.000000 28.833250 19.360620 22.347370 # Si 
52  3 0.000000 28.833250 19.360620 41.099850 # Si 
53  3 0.000000 30.749870 22.680309 22.347370 # Si 
54  3 0.000000 30.749870 22.680309 41.099850 # Si 
55  3 0.000000 32.666489 26.000000 22.347370 # Si 
56  3 0.000000 32.666489 26.000000 41.099850 # Si 
57  3 0.000000 34.583118 29.319691 22.347370 # Si 
58  3 0.000000 34.583118 29.319691 41.099850 # Si 
59  3 0.000000 36.499741 32.639381 22.347370 # Si 
60  3 0.000000 36.499741 32.639381 41.099850 # Si 
61  3 0.000000 30.749870 16.040930 22.347370 # Si 
62  3 0.000000 32.666489 19.360620 22.347370 # Si 
63  3 0.000000 32.666489 19.360620 41.099850 # Si 
64  3 0.000000 34.583118 22.680309 22.347370 # Si 
65  3 0.000000 34.583118 22.680309 41.099850 # Si 
66  3 0.000000 36.499741 26.000000 22.347370 # Si 
67  3 0.000000 36.499741 26.000000 41.099850 # Si 
68  3 0.000000 38.416359 29.319691 22.347370 # Si 
69  3 0.000000 38.416359 29.319691 41.099850 # Si 
70  3 0.000000 36.499741 19.360620 22.347370 # Si 
71  3 0.000000 38.416370 22.680309 22.347370 # Si 
72  3 0.000000 40.332989 26.000000 22.347370 # Si 
73  3 0.000000 15.416880 27.106560 23.129829 # Si 
74  3 0.000000 17.333509 30.426250 23.129829 # Si 
75  3 0.000000 19.250130 33.745941 23.129829 # Si 
76  3 0.000000 21.166750 37.065632 23.129829 # Si 
77  3 0.000000 23.083370 40.385319 23.129829 # Si 
78  3 0.000000 17.333509 23.786869 23.129829 # Si 
79  3 0.000000 19.250130 27.106560 23.129829 # Si 
80  3 0.000000 19.250130 27.106560 41.882301 # Si 
81  3 0.000000 21.166750 30.426250 23.129829 # Si 
82  3 0.000000 21.166750 30.426250 41.882301 # Si 
83  3 0.000000 23.083380 33.745941 23.129829 # Si 
84  3 0.000000 23.083380 33.745941 41.882301 # Si 
85  3 0.000000 25.000000 37.065632 23.129829 # Si 
86  3 0.000000 25.000000 37.065632 41.882301 # Si 
87  3 0.000000 26.916620 40.385319 23.129829 # Si 
88  3 0.000000 19.250130 20.467180 23.129829 # Si 
89  3 0.000000 21.166750 23.786869 23.129829 # Si 
90  3 0.000000 21.166750 23.786869 41.882301 # Si 
91  3 0.000000 23.083380 27.106560 23.129829 # Si 
92  3 0.000000 23.083380 27.106560 41.882301 # Si 
93  3 0.000000 25.000000 30.426250 23.129829 # Si 
94  3 0.000000 25.000000 30.426250 41.882301 # Si 
95  3 0.000000 26.916620 33.745941 23.129829 # Si 
96  3 0.000000 26.916620 33.745941 41.882301 # Si 
97  3 0.000000 28.833250 37.065632 23.129829 # Si 
98  3 0.000000 28.833250 37.065632 41.882301 # Si 
99  3 0.000000 30.749870 40.385319 23.129829 # Si 
100  3 0.000000 21.166750 17.147490 23.129829 # Si 
101  3 0.000000 23.083380 20.467180 23.129829 # Si 
102  3 0.000000 23.083380 20.467180 41.882301 # Si 
103  3 0.000000 25.000000 23.786869 23.129829 # Si 
104  3 0.000000 25.000000 23.786869 41.882301 # Si 
105  3 0.000000 26.916620 27.106560 23.129829 # Si 
106  3 0.000000 26.916620 27.106560 41.882301 # Si 
107  3 0.000000 28.833250 30.426250 23.129829 # Si 
108  3 0.000000 28.833250 30.426250 41.882301 # Si 
109  3 0.000000 30.749870 33.745941 23.129829 # Si 
110  3 0.000000 30.749870 33.745941 41.882301 # Si 
111  3 0.000000 32.666489 37.065632 23.129829 # Si 
112  3 0.000000 32.666489 37.065632 41.882301 # Si 
113  3 0.000000 25.000000 17.147490 23.129829 # Si 
114  3 0.000000 26.916620 20.467180 23.129829 # Si 
115  3 0.000000 26.916620 20.467180 41.882301 # Si 
116  3 0.000000 28.833250 23.786869 23.129829 # Si 
117  3 0.000000 28.833250 23.786869 41.882301 # Si 
118  3 0.000000 30.749870 27.106560 23.129829 # Si 
119  3 0.000000 30.749870 27.106560 41.882301 # Si 
120  3 0.000000 32.666489 30.426250 23.129829 # Si 
121  3 0.000000 32.666489 30.426250 41.882301 # Si 
122  3 0.000000 34.583118 33.745941 23.129829 # Si 
123  3 0.000000 34.583118 33.745941 41.882301 # Si 
124  3 0.000000 36.499741 37.065632 23.129829 # Si 
125  3 0.000000 28.833250 17.147490 23.129829 # Si 
126  3 0.000000 30.749870 20.467180 23.129829 # Si 
127  3 0.000000 30.749870 20.467180 41.882301 # Si 
128  3 0.000000 32.666489 23.786869 23.129829 # Si 
129  3 0.000000 32.666489 23.786869 41.882301 # Si 
130  3 0.000000 34.583118 27.106560 23.129829 # Si 
131  3 0.000000 34.583118 27.106560 41.882301 # Si 
132  3 0.000000 36.499741 30.426250 23.129829 # Si 
133  3 0.000000 36.499741 30.426250 41.882301 # Si 
134  3 0.000000 38.416359 33.745941 23.129829 # Si 
135  3 0.000000 32.666489 17.147490 23.129829 # Si 
136  3 0.000000 34.583118 20.467180 23.129829 # Si 
137  3 0.000000 34.583118 20.467180 41.882301 # Si 
138  3 0.000000 36.499741 23.786869 23.129829 # Si 
139  3 0.000000 36.499741 23.786869 41.882301 # Si 
140  3 0.000000 38.416359 27.106560 23.129829 # Si 
141  3 0.000000 38.416359 27.106560 41.882301 # Si 
142  3 0.000000 40.332989 30.426250 23.129829 # Si 
143  3 0.000000 36.499741 17.147490 23.129829 # Si 
144  3 0.000000 38.416359 20.467180 23.129829 # Si 
145  3 0.000000 40.332989 23.786869 23.129829 # Si 
146  3 0.000000 13.500260 30.426250 25.477209 # Si 
147  3 0.000000 15.416880 33.745941 25.477209 # Si 
148  3 0.000000 17.333500 37.065632 25.477209 # Si 
149  3 0.000000 15.416880 27.106560 25.477209 # Si 
150  3 0.000000 17.333509 30.426250 25.477209 # Si 
151  3 0.000000 19.250130 33.745941 25.477209 # Si 
152  3 0.000000 21.166750 37.065632 25.477209 # Si 
153  3 0.000000 23.083370 40.385319 25.477209 # Si 
154  3 0.000000 17.333509 23.786869 25.477209 # Si 
155  3 0.000000 19.250130 27.106560 25.477209 # Si 
156  3 0.000000 21.166750 30.426250 25.477209 # Si 
157  3 0.000000 21.166750 30.426250 44.229679 # Si 
158  3 0.000000 23.083380 33.745941 25.477209 # Si 
159  3 0.000000 23.083380 33.745941 44.229679 # Si 
160  3 0.000000 25.000000 37.065632 25.477209 # Si 
161  3 0.000000 26.916620 40.385319 25.477209 # Si 
162  3 0.000000 19.250130 20.467180 25.477209 # Si 
163  3 0.000000 21.166750 23.786869 25.477209 # Si 
164  3 0.000000 21.166750 23.786869 44.229679 # Si 
165  3 0.000000 23.083380 27.106560 25.477209 # Si 
166  3 0.000000 23.083380 27.106560 44.229679 # Si 
167  3 0.000000 25.000000 30.426250 25.477209 # Si 
168  3 0.000000 25.000000 30.426250 44.229679 # Si 
169  3 0.000000 26.916620 33.745941 25.477209 # Si 
170  3 0.000000 26.916620 33.745941 44.229679 # Si 
171  3 0.000000 28.833250 37.065632 25.477209 # Si 
172  3 0.000000 30.749870 40.385319 25.477209 # Si 
173  3 0.000000 21.166750 17.147490 25.477209 # Si 
174  3 0.000000 23.083380 20.467180 25.477209 # Si 
175  3 0.000000 25.000000 23.786869 25.477209 # Si 
176  3 0.000000 25.000000 23.786869 44.229679 # Si 
177  3 0.000000 26.916620 27.106560 25.477209 # Si 
178  3 0.000000 26.916620 27.106560 44.229679 # Si 
179  3 0.000000 28.833250 30.426250 25.477209 # Si 
180  3 0.000000 28.833250 30.426250 44.229679 # Si 
181  3 0.000000 30.749870 33.745941 25.477209 # Si 
182  3 0.000000 30.749870 33.745941 44.229679 # Si 
183  3 0.000000 32.666489 37.065632 25.477209 # Si 
184  3 0.000000 34.583118 40.385319 25.477209 # Si 
185  3 0.000000 23.083380 13.827810 25.477209 # Si 
186  3 0.000000 25.000000 17.147490 25.477209 # Si 
187  3 0.000000 26.916620 20.467180 25.477209 # Si 
188  3 0.000000 28.833250 23.786869 25.477209 # Si 
189  3 0.000000 28.833250 23.786869 44.229679 # Si 
190  3 0.000000 30.749870 27.106560 25.477209 # Si 
191  3 0.000000 30.749870 27.106560 44.229679 # Si 
192  3 0.000000 32.666489 30.426250 25.477209 # Si 
193  3 0.000000 32.666489 30.426250 44.229679 # Si 
194  3 0.000000 34.583118 33.745941 25.477209 # Si 
195  3 0.000000 36.499741 37.065632 25.477209 # Si 
196  3 0.000000 26.916620 13.827810 25.477209 # Si 
197  3 0.000000 28.833250 17.147490 25.477209 # Si 
198  3 0.000000 30.749870 20.467180 25.477209 # Si 
199  3 0.000000 32.666489 23.786869 25.477209 # Si 
200  3 0.000000 32.666489 23.786869 44.229679 # Si 
201  3 0.000000 34.583118 27.106560 25.477209 # Si 
202  3 0.000000 34.583118 27.106560 44.229679 # Si 
203  3 0.000000 36.499741 30.426250 25.477209 # Si 
204  3 0.000000 38.416359 33.745941 25.477209 # Si 
205  3 0.000000 30.749870 13.827810 25.477209 # Si 
206  3 0.000000 32.666489 17.147490 25.477209 # Si 
207  3 0.000000 34.583118 20.467180 25.477209 # Si 
208  3 0.000000 36.499741 23.786869 25.477209 # Si 
209  3 0.000000 38.416359 27.106560 25.477209 # Si 
210  3 0.000000 40.332989 30.426250 25.477209 # Si 
211  3 0.000000 36.499741 17.147490 25.477209 # Si 
212  3 0.000000 38.416359 20.467180 25.477209 # Si 
213  3 0.000000 40.332989 23.786869 25.477209 # Si 
214  3 0.000000 42.249611 27.106560 25.477209 # Si 
215  3 0.000000 13.500260 28.213131 26.259670 # Si 
216  3 0.000000 15.416880 31.532820 26.259670 # Si 
217  3 0.000000 17.333509 34.852509 26.259670 # Si 
218  3 0.000000 19.250130 38.172199 26.259670 # Si 
219  3 0.000000 15.416880 24.893440 26.259670 # Si 
220  3 0.000000 17.333509 28.213131 26.259670 # Si 
221  3 0.000000 19.250130 31.532820 26.259670 # Si 
222  3 0.000000 21.166750 34.852509 26.259670 # Si 
223  3 0.000000 23.083380 38.172199 26.259670 # Si 
224  3 0.000000 25.000000 41.491879 26.259670 # Si 
225  3 0.000000 17.333509 21.573750 26.259670 # Si 
226  3 0.000000 19.250130 24.893440 26.259670 # Si 
227  3 0.000000 21.166750 28.213131 26.259670 # Si 
228  3 0.000000 23.083380 31.532820 26.259670 # Si 
229  3 0.000000 23.083380 31.532820 45.012138 # Si 
230  3 0.000000 25.000000 34.852509 26.259670 # Si 
231  3 0.000000 26.916620 38.172199 26.259670 # Si 
232  3 0.000000 28.833250 41.491879 26.259670 # Si 
233  3 0.000000 19.250130 18.254061 26.259670 # Si 
234  3 0.000000 21.166750 21.573750 26.259670 # Si 
235  3 0.000000 23.083380 24.893440 26.259670 # Si 
236  3 0.000000 23.083380 24.893440 45.012138 # Si 
237  3 0.000000 25.000000 28.213131 26.259670 # Si 
238  3 0.000000 25.000000 28.213131 45.012138 # Si 
239  3 0.000000 26.916620 31.532820 26.259670 # Si 
240  3 0.000000 26.916620 31.532820 45.012138 # Si 
241  3 0.000000 28.833250 34.852509 26.259670 # Si 
242  3 0.000000 30.749870 38.172199 26.259670 # Si 
243  3 0.000000 32.666489 41.491879 26.259670 # Si 
244  3 0.000000 21.166750 14.934370 26.259670 # Si 
245  3 0.000000 23.083380 18.254061 26.259670 # Si 
246  3 0.000000 25.000000 21.573750 26.259670 # Si 
247  3 0.000000 26.916620 24.893440 26.259670 # Si 
248  3 0.000000 26.916620 24.893440 45.012138 # Si 
249  3 0.000000 28.833250 28.213131 26.259670 # Si 
250  3 0.000000 28.833250 28.213131 45.012138 # Si 
251  3 0.000000 30.749870 31.532820 26.259670 # Si 
252  3 0.000000 30.749870 31.532820 45.012138 # Si 
253  3 0.000000 32.666489 34.852509 26.259670 # Si 
254  3 0.000000 34.583118 38.172199 26.259670 # Si 
255  3 0.000000 25.000000 14.934370 26.259670 # Si 
256  3 0.000000 26.916620 18.254061 26.259670 # Si 
257  3 0.000000 28.833250 21.573750 26.259670 # Si 
258  3 0.000000 30.749870 24.893440 26.259670 # Si 
259  3 0.000000 30.749870 24.893440 45.012138 # Si 
260  3 0.000000 32.666489 28.213131 26.259670 # Si 
261  3 0.000000 32.666489 28.213131 45.012138 # Si 
262  3 0.000000 34.583118 31.532820 26.259670 # Si 
263  3 0.000000 36.499741 34.852509 26.259670 # Si 
264  3 0.000000 38.416359 38.172199 26.259670 # Si 
265  3 0.000000 28.833250 14.934370 26.259670 # Si 
266  3 0.000000 30.749870 18.254061 26.259670 # Si 
267  3 0.000000 32.666489 21.573750 26.259670 # Si 
268  3 0.000000 34.583118 24.893440 26.259670 # Si 
269  3 0.000000 36.499741 28.213131 26.259670 # Si 
270  3 0.000000 38.416359 31.532820 26.259670 # Si 
271  3 0.000000 40.332989 34.852509 26.259670 # Si 
272  3 0.000000 32.666500 14.934370 26.259670 # Si 
273  3 0.000000 34.583118 18.254061 26.259670 # Si 
274  3 0.000000 36.499741 21.573750 26.259670 # Si 
275  3 0.000000 38.416359 24.893440 26.259670 # Si 
276  3 0.000000 40.332989 28.213131 26.259670 # Si 
277  3 0.000000 42.249611 31.532820 26.259670 # Si 
278  3 0.000000 38.416370 18.254061 26.259670 # Si 
279  3 0.000000 40.332989 21.573750 26.259670 # Si 
280  3 0.000000 42.249611 24.893440 26.259670 # Si 
281  3 0.000000 13.503110 28.210951 28.605160 # Si 
282  3 0.000000 15.419740 31.530640 28.605160 # Si 
283  3 0.000000 17.336361 34.850330 28.605160 # Si 
284  3 0.000000 19.252979 38.170021 28.605160 # Si 
285  3 0.000000 15.419740 24.891260 28.605160 # Si 
286  3 0.000000 17.336361 28.210951 28.605160 # Si 
287  3 0.000000 19.252979 31.530640 28.605160 # Si 
288  3 0.000000 21.169609 34.850330 28.605160 # Si 
289  3 0.000000 23.086229 38.170021 28.605160 # Si 
290  3 0.000000 25.002850 41.489712 28.605160 # Si 
291  3 0.000000 17.336361 21.571569 28.605160 # Si 
292  3 0.000000 19.252991 24.891260 28.605160 # Si 
293  3 0.000000 21.169609 28.210951 28.605160 # Si 
294  3 0.000000 23.086229 31.530640 28.605160 # Si 
295  3 0.000000 25.002850 34.850330 28.605160 # Si 
296  3 0.000000 26.919479 38.170021 28.605160 # Si 
297  3 0.000000 28.836100 41.489712 28.605160 # Si 
298  3 0.000000 19.252991 18.251881 28.605160 # Si 
299  3 0.000000 21.169609 21.571569 28.605160 # Si 
300  3 0.000000 23.086229 24.891260 28.605160 # Si 
301  3 0.000000 25.002859 28.210951 28.605160 # Si 
302  3 0.000000 26.919479 31.530640 28.605160 # Si 
303  3 0.000000 28.836100 34.850330 28.605160 # Si 
304  3 0.000000 30.752720 38.170021 28.605160 # Si 
305  3 0.000000 32.669350 41.489712 28.605160 # Si 
306  3 0.000000 21.169609 14.932190 28.605160 # Si 
307  3 0.000000 23.086229 18.251881 28.605160 # Si 
308  3 0.000000 25.002859 21.571569 28.605160 # Si 
309  3 0.000000 26.919479 24.891260 28.605160 # Si 
310  3 0.000000 28.836100 28.210951 28.605160 # Si 
311  3 0.000000 30.752729 31.530640 28.605160 # Si 
312  3 0.000000 32.669350 34.850330 28.605160 # Si 
313  3 0.000000 34.585972 38.170021 28.605160 # Si 
314  3 0.000000 25.002859 14.932190 28.605160 # Si 
315  3 0.000000 26.919479 18.251881 28.605160 # Si 
316  3 0.000000 28.836100 21.571569 28.605160 # Si 
317  3 0.000000 30.752729 24.891260 28.605160 # Si 
318  3 0.000000 32.669350 28.210951 28.605160 # Si 
319  3 0.000000 34.585972 31.530640 28.605160 # Si 
320  3 0.000000 36.502602 34.850330 28.605160 # Si 
321  3 0.000000 38.419220 38.170021 28.605160 # Si 
322  3 0.000000 28.836100 14.932190 28.605160 # Si 
323  3 0.000000 30.752729 18.251881 28.605160 # Si 
324  3 0.000000 32.669350 21.571569 28.605160 # Si 
325  3 0.000000 34.585972 24.891260 28.605160 # Si 
326  3 0.000000 36.502602 28.210951 28.605160 # Si 
327  3 0.000000 38.419220 31.530640 28.605160 # Si 
328  3 0.000000 40.335838 34.850330 28.605160 # Si 
329  3 0.000000 32.669350 14.932190 28.605160 # Si 
330  3 0.000000 34.585972 18.251881 28.605160 # Si 
331  3 0.000000 36.502602 21.571569 28.605160 # Si 
332  3 0.000000 38.419220 24.891260 28.605160 # Si 
333  3 0.000000 40.335838 28.210951 28.605160 # Si 
334  3 0.000000 42.252468 31.530640 28.605160 # Si 
335  3 0.000000 38.419220 18.251881 28.605160 # Si 
336  3 0.000000 40.335838 21.571569 28.605160 # Si 
337  3 0.000000 42.252468 24.891260 28.605160 # Si 
338  3 0.000000 13.503250 32.636921 29.387369 # Si 
339  3 0.000000 15.419880 35.956612 29.387369 # Si 
340  3 0.000000 13.503250 25.997540 29.387369 # Si 
341  3 0.000000 15.419880 29.317230 29.387369 # Si 
342  3 0.000000 17.336500 32.636921 29.387369 # Si 
343  3 0.000000 19.253120 35.956612 29.387369 # Si 
344  3 0.000000 21.169750 39.276299 29.387369 # Si 
345  3 0.000000 15.419880 22.677851 29.387369 # Si 
346  3 0.000000 17.336500 25.997540 29.387369 # Si 
347  3 0.000000 19.253120 29.317230 29.387369 # Si 
348  3 0.000000 21.169750 32.636921 29.387369 # Si 
349  3 0.000000 23.086370 35.956612 29.387369 # Si 
350  3 0.000000 25.002991 39.276299 29.387369 # Si 
351  3 0.000000 26.919621 42.595982 29.387369 # Si 
352  3 0.000000 17.336500 19.358160 29.387369 # Si 
353  3 0.000000 19.253120 22.677851 29.387369 # Si 
354  3 0.000000 21.169750 25.997540 29.387369 # Si 
355  3 0.000000 23.086370 29.317230 29.387369 # Si 
356  3 0.000000 25.002991 32.636921 29.387369 # Si 
357  3 0.000000 26.919621 35.956612 29.387369 # Si 
358  3 0.000000 28.836241 39.276299 29.387369 # Si 
359  3 0.000000 30.752859 42.595982 29.387369 # Si 
360  3 0.000000 19.253120 16.038469 29.387369 # Si 
361  3 0.000000 21.169750 19.358160 29.387369 # Si 
362  3 0.000000 23.086370 22.677851 29.387369 # Si 
363  3 0.000000 25.002991 25.997540 29.387369 # Si 
364  3 0.000000 26.919621 29.317230 29.387369 # Si 
365  3 0.000000 28.836241 32.636921 29.387369 # Si 
366  3 0.000000 30.752859 35.956612 29.387369 # Si 
367  3 0.000000 32.669491 39.276299 29.387369 # Si 
368  3 0.000000 23.086370 16.038469 29.387369 # Si 
369  3 0.000000 25.002991 19.358160 29.387369 # Si 
370  3 0.000000 26.919621 22.677851 29.387369 # Si 
371  3 0.000000 28.836241 25.997540 29.387369 # Si 
372  3 0.000000 30.752859 29.317230 29.387369 # Si 
373  3 0.000000 32.669491 32.636921 29.387369 # Si 
374  3 0.000000 34.586109 35.956612 29.387369 # Si 
375  3 0.000000 36.502731 39.276299 29.387369 # Si 
376  3 0.000000 25.002991 12.718780 29.387369 # Si 
377  3 0.000000 26.919621 16.038469 29.387369 # Si 
378  3 0.000000 28.836241 19.358160 29.387369 # Si 
379  3 0.000000 30.752859 22.677851 29.387369 # Si 
380  3 0.000000 32.669491 25.997540 29.387369 # Si 
381  3 0.000000 34.586109 29.317230 29.387369 # Si 
382  3 0.000000 36.502731 32.636921 29.387369 # Si 
383  3 0.000000 38.419361 35.956612 29.387369 # Si 
384  3 0.000000 28.836241 12.718780 29.387369 # Si 
385  3 0.000000 30.752871 16.038469 29.387369 # Si 
386  3 0.000000 32.669491 19.358160 29.387369 # Si 
387  3 0.000000 34.586109 22.677851 29.387369 # Si 
388  3 0.000000 36.502731 25.997540 29.387369 # Si 
389  3 0.000000 38.419361 29.317230 29.387369 # Si 
390  3 0.000000 40.335979 32.636921 29.387369 # Si 
391  3 0.000000 34.586109 16.038469 29.387369 # Si 
392  3 0.000000 36.502739 19.358160 29.387369 # Si 
393  3 0.000000 38.419361 22.677851 29.387369 # Si 
394  3 0.000000 40.335979 25.997540 29.387369 # Si 
395  3 0.000000 42.252602 29.317230 29.387369 # Si 
396  3 0.000000 40.335979 19.358160 29.387369 # Si 
397  3 0.000000 42.252602 22.677851 29.387369 # Si 
398  3 0.000000 13.505320 32.634769 31.731960 # Si 
399  3 0.000000 15.421940 35.954460 31.731960 # Si 
400  3 0.000000 13.505320 25.995390 31.731960 # Si 
401  3 0.000000 15.421940 29.315081 31.731960 # Si 
402  3 0.000000 17.338570 32.634769 31.731960 # Si 
403  3 0.000000 19.255190 35.954460 31.731960 # Si 
404  3 0.000000 21.171810 39.274151 31.731960 # Si 
405  3 0.000000 15.421940 22.675699 31.731960 # Si 
406  3 0.000000 17.338570 25.995390 31.731960 # Si 
407  3 0.000000 19.255190 29.315081 31.731960 # Si 
408  3 0.000000 21.171810 32.634769 31.731960 # Si 
409  3 0.000000 23.088440 35.954460 31.731960 # Si 
410  3 0.000000 25.005060 39.274151 31.731960 # Si 
411  3 0.000000 26.921680 42.593842 31.731960 # Si 
412  3 0.000000 17.338570 19.356010 31.731960 # Si 
413  3 0.000000 19.255190 22.675699 31.731960 # Si 
414  3 0.000000 21.171820 25.995390 31.731960 # Si 
415  3 0.000000 23.088440 29.315081 31.731960 # Si 
416  3 0.000000 25.005060 32.634769 31.731960 # Si 
417  3 0.000000 26.921690 35.954460 31.731960 # Si 
418  3 0.000000 28.838310 39.274151 31.731960 # Si 
419  3 0.000000 30.754930 42.593842 31.731960 # Si 
420  3 0.000000 19.255190 16.036320 31.731960 # Si 
421  3 0.000000 21.171820 19.356010 31.731960 # Si 
422  3 0.000000 23.088440 22.675699 31.731960 # Si 
423  3 0.000000 25.005060 25.995390 31.731960 # Si 
424  3 0.000000 26.921690 29.315081 31.731960 # Si 
425  3 0.000000 28.838310 32.634769 31.731960 # Si 
426  3 0.000000 30.754930 35.954460 31.731960 # Si 
427  3 0.000000 32.671551 39.274151 31.731960 # Si 
428  3 0.000000 23.088440 16.036320 31.731960 # Si 
429  3 0.000000 25.005060 19.356010 31.731960 # Si 
430  3 0.000000 26.921690 22.675699 31.731960 # Si 
431  3 0.000000 28.838310 25.995390 31.731960 # Si 
432  3 0.000000 30.754930 29.315081 31.731960 # Si 
433  3 0.000000 32.671551 32.634769 31.731960 # Si 
434  3 0.000000 34.588181 35.954460 31.731960 # Si 
435  3 0.000000 36.504799 39.274151 31.731960 # Si 
436  3 0.000000 25.005060 12.716630 31.731960 # Si 
437  3 0.000000 26.921690 16.036320 31.731960 # Si 
438  3 0.000000 28.838310 19.356010 31.731960 # Si 
439  3 0.000000 30.754930 22.675699 31.731960 # Si 
440  3 0.000000 32.671558 25.995390 31.731960 # Si 
441  3 0.000000 34.588181 29.315081 31.731960 # Si 
442  3 0.000000 36.504799 32.634769 31.731960 # Si 
443  3 0.000000 38.421421 35.954460 31.731960 # Si 
444  3 0.000000 28.838310 12.716630 31.731960 # Si 
445  3 0.000000 30.754930 16.036320 31.731960 # Si 
446  3 0.000000 32.671558 19.356010 31.731960 # Si 
447  3 0.000000 34.588181 22.675699 31.731960 # Si 
448  3 0.000000 36.504799 25.995390 31.731960 # Si 
449  3 0.000000 38.421429 29.315081 31.731960 # Si 
450  3 0.000000 40.338051 32.634769 31.731960 # Si 
451  3 0.000000 34.588181 16.036320 31.731960 # Si 
452  3 0.000000 36.504799 19.356010 31.731960 # Si 
453  3 0.000000 38.421429 22.675699 31.731960 # Si 
454  3 0.000000 40.338051 25.995390 31.731960 # Si 
455  3 0.000000 42.254669 29.315081 31.731960 # Si 
456  3 0.000000 40.338051 19.356010 31.731960 # Si 
457  3 0.000000 42.254669 22.675699 31.731960 # Si 
458  3 0.000000 13.505380 30.421511 32.514511 # Si 
459  3 0.000000 15.422000 33.741199 32.514511 # Si 
460  3 0.000000 17.338619 37.060890 32.514511 # Si 
461  3 0.000000 13.505380 23.782129 32.514511 # Si 
462  3 0.000000 15.422000 27.101820 32.514511 # Si 
463  3 0.000000 17.338619 30.421511 32.514511 # Si 
464  3 0.000000 19.255251 33.741199 32.514511 # Si 
465  3 0.000000 21.171869 37.060890 32.514511 # Si 
466  3 0.000000 23.088490 40.380581 32.514511 # Si 
467  3 0.000000 15.422000 20.462440 32.514511 # Si 
468  3 0.000000 17.338619 23.782129 32.514511 # Si 
469  3 0.000000 19.255251 27.101820 32.514511 # Si 
470  3 0.000000 21.171869 30.421511 32.514511 # Si 
471  3 0.000000 23.088490 33.741199 32.514511 # Si 
472  3 0.000000 25.005110 37.060890 32.514511 # Si 
473  3 0.000000 26.921740 40.380581 32.514511 # Si 
474  3 0.000000 17.338619 17.142750 32.514511 # Si 
475  3 0.000000 19.255251 20.462440 32.514511 # Si 
476  3 0.000000 21.171869 23.782129 32.514511 # Si 
477  3 0.000000 23.088490 27.101820 32.514511 # Si 
478  3 0.000000 25.005119 30.421511 32.514511 # Si 
479  3 0.000000 26.921740 33.741199 32.514511 # Si 
480  3 0.000000 28.838360 37.060890 32.514511 # Si 
481  3 0.000000 30.754980 40.380581 32.514511 # Si 
482  3 0.000000 21.171869 17.142750 32.514511 # Si 
483  3 0.000000 23.088490 20.462440 32.514511 # Si 
484  3 0.000000 25.005119 23.782129 32.514511 # Si 
485  3 0.000000 26.921740 27.101820 32.514511 # Si 
486  3 0.000000 28.838360 30.421511 32.514511 # Si 
487  3 0.000000 30.754990 33.741199 32.514511 # Si 
488  3 0.000000 32.671612 37.060890 32.514511 # Si 
489  3 0.000000 34.588230 40.380581 32.514511 # Si 
490  3 0.000000 23.088490 13.823060 32.514511 # Si 
491  3 0.000000 25.005119 17.142750 32.514511 # Si 
492  3 0.000000 26.921740 20.462440 32.514511 # Si 
493  3 0.000000 28.838360 23.782129 32.514511 # Si 
494  3 0.000000 30.754990 27.101820 32.514511 # Si 
495  3 0.000000 32.671612 30.421511 32.514511 # Si 
496  3 0.000000 34.588230 33.741199 32.514511 # Si 
497  3 0.000000 36.504860 37.060890 32.514511 # Si 
498  3 0.000000 26.921740 13.823060 32.514511 # Si 
499  3 0.000000 28.838360 17.142750 32.514511 # Si 
500  3 0.000000 30.754990 20.462440 32.514511 # Si 
501  3 0.000000 32.671612 23.782129 32.514511 # Si 
502  3 0.000000 34.588230 27.101820 32.514511 # Si 
503  3 0.000000 36.504860 30.421511 32.514511 # Si 
504  3 0.000000 38.421478 33.741199 32.514511 # Si 
505  3 0.000000 30.754990 13.823060 32.514511 # Si 
506  3 0.000000 32.671612 17.142750 32.514511 # Si 
507  3 0.000000 34.588230 20.462440 32.514511 # Si 
508  3 0.000000 36.504860 23.782129 32.514511 # Si 
509  3 0.000000 38.421478 27.101820 32.514511 # Si 
510  3 0.000000 40.338100 30.421511 32.514511 # Si 
511  3 0.000000 36.504860 17.142750 32.514511 # Si 
512  3 0.000000 38.421478 20.462440 32.514511 # Si 
513  3 0.000000 40.338100 23.782129 32.514511 # Si 
514  3 0.000000 42.254730 27.101820 32.514511 # Si 
515  3 0.000000 13.508480 30.419519 34.860970 # Si 
516  3 0.000000 15.425100 33.739208 34.860970 # Si 
517  3 0.000000 17.341730 37.058891 34.860970 # Si 
518  3 0.000000 13.508480 23.780140 34.860970 # Si 
519  3 0.000000 15.425110 27.099831 34.860970 # Si 
520  3 0.000000 17.341730 30.419519 34.860970 # Si 
521  3 0.000000 19.258350 33.739208 34.860970 # Si 
522  3 0.000000 21.174971 37.058891 34.860970 # Si 
523  3 0.000000 23.091600 40.378578 34.860970 # Si 
524  3 0.000000 15.425110 20.460449 34.860970 # Si 
525  3 0.000000 17.341730 23.780140 34.860970 # Si 
526  3 0.000000 19.258350 27.099831 34.860970 # Si 
527  3 0.000000 21.174971 30.419519 34.860970 # Si 
528  3 0.000000 23.091600 33.739208 34.860970 # Si 
529  3 0.000000 25.008221 37.058891 34.860970 # Si 
530  3 0.000000 26.924841 40.378578 34.860970 # Si 
531  3 0.000000 17.341730 17.140760 34.860970 # Si 
532  3 0.000000 19.258350 20.460449 34.860970 # Si 
533  3 0.000000 21.174971 23.780140 34.860970 # Si 
534  3 0.000000 23.091600 27.099831 16.108500 # Si 
535  3 0.000000 23.091600 27.099831 34.860970 # Si 
536  3 0.000000 25.008221 30.419519 16.108500 # Si 
537  3 0.000000 25.008221 30.419519 34.860970 # Si 
538  3 0.000000 26.924841 33.739208 34.860970 # Si 
539  3 0.000000 28.841471 37.058891 34.860970 # Si 
540  3 0.000000 30.758089 40.378578 34.860970 # Si 
541  3 0.000000 21.174980 17.140760 34.860970 # Si 
542  3 0.000000 23.091600 20.460449 34.860970 # Si 
543  3 0.000000 25.008221 23.780140 16.108500 # Si 
544  3 0.000000 25.008221 23.780140 34.860970 # Si 
545  3 0.000000 26.924850 27.099831 16.108500 # Si 
546  3 0.000000 26.924850 27.099831 34.860970 # Si 
547  3 0.000000 28.841471 30.419519 16.108500 # Si 
548  3 0.000000 28.841471 30.419519 34.860970 # Si 
549  3 0.000000 30.758089 33.739208 34.860970 # Si 
550  3 0.000000 32.674709 37.058891 34.860970 # Si 
551  3 0.000000 34.591339 40.378578 34.860970 # Si 
552  3 0.000000 23.091600 13.821070 34.860970 # Si 
553  3 0.000000 25.008221 17.140760 34.860970 # Si 
554  3 0.000000 26.924850 20.460449 34.860970 # Si 
555  3 0.000000 28.841471 23.780140 16.108500 # Si 
556  3 0.000000 28.841471 23.780140 34.860970 # Si 
557  3 0.000000 30.758089 27.099831 16.108500 # Si 
558  3 0.000000 30.758089 27.099831 34.860970 # Si 
559  3 0.000000 32.674721 30.419519 16.108500 # Si 
560  3 0.000000 32.674721 30.419519 34.860970 # Si 
561  3 0.000000 34.591339 33.739208 34.860970 # Si 
562  3 0.000000 36.507961 37.058891 34.860970 # Si 
563  3 0.000000 26.924850 13.821070 34.860970 # Si 
564  3 0.000000 28.841471 17.140760 34.860970 # Si 
565  3 0.000000 30.758089 20.460449 34.860970 # Si 
566  3 0.000000 32.674721 23.780140 34.860970 # Si 
567  3 0.000000 34.591339 27.099831 34.860970 # Si 
568  3 0.000000 36.507961 30.419519 34.860970 # Si 
569  3 0.000000 38.424591 33.739208 34.860970 # Si 
570  3 0.000000 30.758089 13.821070 34.860970 # Si 