LAMMPS data file. CGCMM style. atom_style full generated by VMD/TopoTools v1.8 on Mon Jan 08 10:49:57 MST 2024

 1164 atoms
 0 bonds
 0 angles
 0 dihedrals
 0 impropers
 3 atom types
 0 bond types
 0 angle types
 0 dihedral types
 0 improper types
 -9.530455 45.469545  xlo xhi
 -8.648115 46.351885  ylo yhi
 -3.928195 51.071805  zlo zhi

# Pair Coeffs
#
# 1  C
# 2  H
# 3  Si

 Masses

 1 12.010700 # C
 2 1.007940 # H
 3 28.085501 # Si

 Atoms # full

1  3 0.000000 6.118710 20.418699 10.737850 # Si 
2  3 0.000000 7.916380 23.558390 10.728090 # Si 
3  3 0.000000 9.699740 26.663401 10.721580 # Si 
4  3 0.000000 7.960940 17.292080 10.724810 # Si 
5  3 0.000000 7.803050 17.566931 28.587851 # Si 
6  3 0.000000 9.758530 20.437710 10.692120 # Si 
7  3 0.000000 9.778830 20.476959 28.554220 # Si 
8  3 0.000000 11.568470 23.575939 10.686720 # Si 
9  3 0.000000 11.578420 23.600269 28.532921 # Si 
10  3 0.000000 13.370760 26.721609 10.703120 # Si 
11  3 0.000000 13.413700 26.740200 28.625340 # Si 
12  3 0.000000 15.239920 29.917150 10.737840 # Si 
13  3 0.000000 9.796810 14.133400 10.773830 # Si 
14  3 0.000000 9.768670 14.113580 28.600370 # Si 
15  3 0.000000 11.609210 17.284170 10.767520 # Si 
16  3 0.000000 11.563130 17.276489 28.605671 # Si 
17  3 0.000000 13.417750 20.431089 10.739130 # Si 
18  3 0.000000 13.395420 20.430630 28.619390 # Si 
19  3 0.000000 15.233350 23.574011 10.756940 # Si 
20  3 0.000000 15.211690 23.579460 28.613310 # Si 
21  3 0.000000 17.027361 26.724010 10.758420 # Si 
22  3 0.000000 17.069880 26.703581 28.666479 # Si 
23  3 0.000000 18.843590 29.856750 10.751710 # Si 
24  3 0.000000 11.613980 10.963990 10.724290 # Si 
25  3 0.000000 11.781680 10.692060 28.585600 # Si 
26  3 0.000000 13.431640 14.127380 10.767230 # Si 
27  3 0.000000 13.409180 14.097210 28.597300 # Si 
28  3 0.000000 15.249120 17.281281 10.762380 # Si 
29  3 0.000000 15.239920 17.289360 28.639990 # Si 
30  3 0.000000 17.067909 20.429600 10.761830 # Si 
31  3 0.000000 17.040859 20.430889 28.683250 # Si 
32  3 0.000000 18.886629 23.575230 10.756990 # Si 
33  3 0.000000 18.882111 23.537680 28.649630 # Si 
34  3 0.000000 20.661150 26.716640 10.763440 # Si 
35  3 0.000000 20.718250 26.676001 28.676279 # Si 
36  3 0.000000 22.363411 29.848431 10.610140 # Si 
37  3 0.000000 13.399240 7.805230 10.737250 # Si 
38  3 0.000000 15.237110 10.947810 10.691370 # Si 
39  3 0.000000 15.293080 10.977040 28.561911 # Si 
40  3 0.000000 17.061180 14.120290 10.738640 # Si 
41  3 0.000000 17.054001 14.143130 28.593050 # Si 
42  3 0.000000 18.884821 17.282530 10.761670 # Si 
43  3 0.000000 18.851870 17.307070 28.679890 # Si 
44  3 0.000000 20.723970 20.442659 10.749440 # Si 
45  3 0.000000 20.661860 20.416849 28.668400 # Si 
46  3 0.000000 22.548759 23.607840 10.743290 # Si 
47  3 0.000000 22.519609 23.545650 28.569901 # Si 
48  3 0.000000 24.292810 26.831240 10.736890 # Si 
49  3 0.000000 24.345980 26.694300 28.618469 # Si 
50  3 0.000000 17.017559 7.792250 10.726810 # Si 
51  3 0.000000 18.859989 10.946380 10.685700 # Si 
52  3 0.000000 18.879780 10.979120 28.568600 # Si 
53  3 0.000000 20.690729 14.121530 10.756370 # Si 
54  3 0.000000 20.655581 14.152820 28.601089 # Si 
55  3 0.000000 22.518169 17.285191 10.756800 # Si 
56  3 0.000000 22.461920 17.307751 28.660721 # Si 
57  3 0.000000 24.377291 20.440790 10.743170 # Si 
58  3 0.000000 24.306290 20.445780 28.562820 # Si 
59  3 0.000000 26.206051 23.608459 10.771160 # Si 
60  3 0.000000 26.163500 23.579260 28.537960 # Si 
61  3 0.000000 20.598520 7.784470 10.719780 # Si 
62  3 0.000000 22.485439 10.934830 10.701950 # Si 
63  3 0.000000 22.496679 11.006960 28.645090 # Si 
64  3 0.000000 24.315531 14.100920 10.757770 # Si 
65  3 0.000000 24.278320 14.167890 28.687990 # Si 
66  3 0.000000 26.125820 17.251909 10.763030 # Si 
67  3 0.000000 26.114370 17.312269 28.662180 # Si 
68  3 0.000000 28.040609 20.340231 10.735980 # Si 
69  3 0.000000 27.947330 20.446489 28.612490 # Si 
70  3 0.000000 26.187290 10.957450 10.735850 # Si 
71  3 0.000000 27.936569 14.108510 10.750390 # Si 
72  3 0.000000 29.689150 17.161110 10.609230 # Si 
73  3 0.000000 6.129500 18.325899 11.485140 # Si 
74  3 0.000000 7.930440 21.474060 11.474070 # Si 
75  3 0.000000 9.732390 24.594980 11.473210 # Si 
76  3 0.000000 11.508280 27.712400 11.457500 # Si 
77  3 0.000000 13.550310 31.169331 11.484680 # Si 
78  3 0.000000 7.974650 15.193230 11.497890 # Si 
79  3 0.000000 9.778070 18.344870 11.476970 # Si 
80  3 0.000000 9.742740 18.391479 29.328760 # Si 
81  3 0.000000 11.580210 21.482321 11.458530 # Si 
82  3 0.000000 11.569490 21.520161 29.311069 # Si 
83  3 0.000000 13.389730 24.622480 11.463460 # Si 
84  3 0.000000 13.365320 24.637640 29.321159 # Si 
85  3 0.000000 15.190020 27.790010 11.466800 # Si 
86  3 0.000000 15.237620 27.619671 29.575340 # Si 
87  3 0.000000 17.060810 30.924721 11.504120 # Si 
88  3 0.000000 9.803260 12.025510 11.497560 # Si 
89  3 0.000000 11.616220 15.183780 11.511670 # Si 
90  3 0.000000 11.586720 15.160010 29.337330 # Si 
91  3 0.000000 13.426940 18.335291 11.499200 # Si 
92  3 0.000000 13.397110 18.317120 29.354210 # Si 
93  3 0.000000 15.237410 21.475670 11.494970 # Si 
94  3 0.000000 15.203240 21.485460 29.386250 # Si 
95  3 0.000000 17.051920 24.621660 11.497670 # Si 
96  3 0.000000 17.052830 24.599819 29.329430 # Si 
97  3 0.000000 18.845270 27.762289 11.503780 # Si 
98  3 0.000000 18.900709 27.591419 29.599501 # Si 
99  3 0.000000 20.640881 30.933531 11.475680 # Si 
100  3 0.000000 11.592700 8.861230 11.484780 # Si 
101  3 0.000000 13.434420 12.011220 11.476340 # Si 
102  3 0.000000 13.460220 11.968540 29.325340 # Si 
103  3 0.000000 15.250740 15.176190 11.498870 # Si 
104  3 0.000000 15.229080 15.171360 29.342220 # Si 
105  3 0.000000 17.066250 18.330620 11.504090 # Si 
106  3 0.000000 17.046980 18.349060 29.479429 # Si 
107  3 0.000000 18.892651 21.478189 11.497630 # Si 
108  3 0.000000 18.859930 21.449141 29.480339 # Si 
109  3 0.000000 20.705219 24.623079 11.497220 # Si 
110  3 0.000000 20.730520 24.571640 29.363340 # Si 
111  3 0.000000 22.453899 27.797461 11.489860 # Si 
112  3 0.000000 22.542250 27.589439 29.583309 # Si 
113  3 0.000000 15.219670 8.846470 11.472990 # Si 
114  3 0.000000 17.052650 12.003270 11.457630 # Si 
115  3 0.000000 17.078251 12.041510 29.322201 # Si 
116  3 0.000000 18.875481 15.174170 11.494460 # Si 
117  3 0.000000 18.847601 15.200310 29.376101 # Si 
118  3 0.000000 20.705070 18.338900 11.497470 # Si 
119  3 0.000000 20.648439 18.347759 29.494650 # Si 
120  3 0.000000 22.551510 21.498030 11.483300 # Si 
121  3 0.000000 22.495979 21.466400 29.340349 # Si 
122  3 0.000000 24.370029 24.689489 11.470120 # Si 
123  3 0.000000 24.349131 24.585661 29.300659 # Si 
124  3 0.000000 25.977859 28.091080 11.493140 # Si 
125  3 0.000000 18.823681 8.846740 11.471720 # Si 
126  3 0.000000 20.676889 12.000590 11.462440 # Si 
127  3 0.000000 20.659809 12.049570 29.332300 # Si 
128  3 0.000000 22.507040 15.173050 11.497150 # Si 
129  3 0.000000 22.443100 15.201870 29.380280 # Si 
130  3 0.000000 24.334721 18.336620 11.496930 # Si 
131  3 0.000000 24.297770 18.374439 29.331860 # Si 
132  3 0.000000 26.224430 21.477770 11.469780 # Si 
133  3 0.000000 26.123631 21.502689 29.298201 # Si 
134  3 0.000000 28.022060 24.657431 11.498810 # Si 
135  3 0.000000 22.411680 8.826200 11.455620 # Si 
136  3 0.000000 24.320061 11.976740 11.465710 # Si 
137  3 0.000000 24.168720 12.132460 29.600040 # Si 
138  3 0.000000 26.123470 15.156510 11.503080 # Si 
139  3 0.000000 25.976450 15.289820 29.605030 # Si 
140  3 0.000000 27.958071 18.264589 11.489110 # Si 
141  3 0.000000 27.822060 18.432510 29.568041 # Si 
142  3 0.000000 29.973860 21.170370 11.492210 # Si 
143  3 0.000000 26.426840 8.868030 11.481920 # Si 
144  3 0.000000 27.970221 12.030510 11.502410 # Si 
145  3 0.000000 29.767670 15.126690 11.474360 # Si 
146  3 0.000000 4.155090 21.558880 13.991130 # Si 
147  3 0.000000 5.964270 24.725969 14.013440 # Si 
148  3 0.000000 7.792030 27.879669 13.991290 # Si 
149  3 0.000000 6.126500 18.351219 13.721830 # Si 
150  3 0.000000 7.907000 21.506729 13.716170 # Si 
151  3 0.000000 9.713980 24.646690 13.715020 # Si 
152  3 0.000000 11.537490 27.780140 13.696700 # Si 
153  3 0.000000 13.424010 30.965839 13.703520 # Si 
154  3 0.000000 7.980480 15.192960 13.728150 # Si 
155  3 0.000000 9.776830 18.346531 13.712220 # Si 
156  3 0.000000 11.574150 21.490959 13.700320 # Si 
157  3 0.000000 11.404210 21.680229 31.526791 # Si 
158  3 0.000000 13.387030 24.629169 13.699650 # Si 
159  3 0.000000 13.094280 24.666430 31.536360 # Si 
160  3 0.000000 15.204080 27.774771 13.698470 # Si 
161  3 0.000000 17.060181 30.909460 13.725380 # Si 
162  3 0.000000 9.805790 12.030950 13.727820 # Si 
163  3 0.000000 11.616040 15.183940 13.734020 # Si 
164  3 0.000000 11.598050 15.126600 31.564070 # Si 
165  3 0.000000 13.421380 18.335541 13.725900 # Si 
166  3 0.000000 13.423010 18.247860 31.580730 # Si 
167  3 0.000000 15.230930 21.479910 13.721920 # Si 
168  3 0.000000 15.152060 21.525930 31.623899 # Si 
169  3 0.000000 17.045990 24.623751 13.722260 # Si 
170  3 0.000000 17.042419 24.659901 31.527241 # Si 
171  3 0.000000 18.859329 27.764561 13.724680 # Si 
172  3 0.000000 20.692310 30.926210 13.709960 # Si 
173  3 0.000000 11.613570 8.846140 13.721280 # Si 
174  3 0.000000 13.435060 12.009670 13.711530 # Si 
175  3 0.000000 15.247870 15.171720 13.725520 # Si 
176  3 0.000000 15.247070 15.140980 31.571011 # Si 
177  3 0.000000 17.061880 18.328461 13.729730 # Si 
178  3 0.000000 17.046631 18.369530 31.775610 # Si 
179  3 0.000000 18.883539 21.479481 13.725010 # Si 
180  3 0.000000 18.854601 21.453270 31.776230 # Si 
181  3 0.000000 20.701250 24.628010 13.722100 # Si 
182  3 0.000000 20.975800 24.571211 31.589430 # Si 
183  3 0.000000 22.497061 27.797230 13.718250 # Si 
184  3 0.000000 24.387430 31.006451 13.894730 # Si 
185  3 0.000000 13.405530 5.534820 13.990000 # Si 
186  3 0.000000 15.236720 8.810170 13.714980 # Si 
187  3 0.000000 17.056881 11.994110 13.699310 # Si 
188  3 0.000000 18.875561 15.166910 13.721330 # Si 
189  3 0.000000 18.828140 15.190720 31.616360 # Si 
190  3 0.000000 20.701300 18.330830 13.724800 # Si 
191  3 0.000000 20.648790 18.354820 31.800810 # Si 
192  3 0.000000 22.537109 21.489981 13.713120 # Si 
193  3 0.000000 22.529510 21.468000 31.570290 # Si 
194  3 0.000000 24.358540 24.660839 13.701370 # Si 
195  3 0.000000 26.118650 27.880011 13.714990 # Si 
196  3 0.000000 17.053301 5.518140 14.011520 # Si 
197  3 0.000000 18.859680 8.805310 13.713460 # Si 
198  3 0.000000 20.681089 11.995280 13.698550 # Si 
199  3 0.000000 22.505569 15.167150 13.721660 # Si 
200  3 0.000000 22.357740 15.062680 31.611710 # Si 
201  3 0.000000 24.336720 18.330959 13.721740 # Si 
202  3 0.000000 24.432211 18.511730 31.538950 # Si 
203  3 0.000000 26.193720 21.482260 13.701040 # Si 
204  3 0.000000 28.008591 24.649509 13.712330 # Si 
205  3 0.000000 20.698650 5.524470 13.988980 # Si 
206  3 0.000000 22.485220 8.818080 13.694930 # Si 
207  3 0.000000 24.313700 11.996510 13.697370 # Si 
208  3 0.000000 26.132200 15.167520 13.723920 # Si 
209  3 0.000000 27.979240 18.302031 13.717450 # Si 
210  3 0.000000 29.861521 21.397570 13.714180 # Si 
211  3 0.000000 26.187510 8.859850 13.701030 # Si 
212  3 0.000000 27.956360 12.037290 13.723830 # Si 
213  3 0.000000 29.786810 15.174670 13.708630 # Si 
214  3 0.000000 31.703720 18.335190 13.893460 # Si 
215  3 0.000000 4.296620 19.392019 14.514250 # Si 
216  3 0.000000 6.077250 22.555450 14.540590 # Si 
217  3 0.000000 7.897360 25.716721 14.542850 # Si 
218  3 0.000000 9.733900 28.846951 14.511450 # Si 
219  3 0.000000 6.158030 16.242399 14.467440 # Si 
220  3 0.000000 7.952800 19.398870 14.458990 # Si 
221  3 0.000000 9.744870 22.542049 14.456040 # Si 
222  3 0.000000 11.560950 25.678379 14.449730 # Si 
223  3 0.000000 13.379490 28.835400 14.423260 # Si 
224  3 0.000000 15.251440 31.969549 14.459200 # Si 
225  3 0.000000 7.987380 13.089050 14.478580 # Si 
226  3 0.000000 9.797470 16.244011 14.470120 # Si 
227  3 0.000000 11.596670 19.391529 14.458470 # Si 
228  3 0.000000 13.401400 22.530809 14.452620 # Si 
229  3 0.000000 13.274860 22.591101 32.308849 # Si 
230  3 0.000000 15.214520 25.673180 14.449860 # Si 
231  3 0.000000 17.036779 28.807510 14.455150 # Si 
232  3 0.000000 18.874929 31.969139 14.461430 # Si 
233  3 0.000000 9.803170 9.927940 14.466970 # Si 
234  3 0.000000 11.624630 13.078890 14.469700 # Si 
235  3 0.000000 13.432630 16.232870 14.472240 # Si 
236  3 0.000000 13.427030 16.155210 32.317348 # Si 
237  3 0.000000 15.240560 19.381250 14.469720 # Si 
238  3 0.000000 15.160430 19.401730 32.386539 # Si 
239  3 0.000000 17.055090 22.525030 14.466090 # Si 
240  3 0.000000 16.998260 22.620520 32.319241 # Si 
241  3 0.000000 18.870790 25.666821 14.465410 # Si 
242  3 0.000000 20.676531 28.824511 14.460240 # Si 
243  3 0.000000 22.498091 31.997400 14.478870 # Si 
244  3 0.000000 11.599930 6.740970 14.513440 # Si 
245  3 0.000000 13.434280 9.903810 14.458070 # Si 
246  3 0.000000 15.249970 13.063370 14.457600 # Si 
247  3 0.000000 17.062889 16.224689 14.469300 # Si 
248  3 0.000000 17.016350 16.222679 32.394321 # Si 
249  3 0.000000 18.881701 19.379400 14.469920 # Si 
250  3 0.000000 18.826660 19.379030 32.833160 # Si 
251  3 0.000000 20.707809 22.528561 14.462780 # Si 
252  3 0.000000 20.747780 22.511610 32.390690 # Si 
253  3 0.000000 22.521070 25.688801 14.453960 # Si 
254  3 0.000000 24.300140 28.856859 14.495530 # Si 
255  3 0.000000 15.230050 6.701140 14.539060 # Si 
256  3 0.000000 17.052460 9.884290 14.454680 # Si 
257  3 0.000000 18.870960 13.056900 14.451580 # Si 
258  3 0.000000 20.692511 16.224470 14.465530 # Si 
259  3 0.000000 20.635521 16.208401 32.424309 # Si 
260  3 0.000000 22.521790 19.386431 14.462550 # Si 
261  3 0.000000 22.580210 19.395161 32.351341 # Si 
262  3 0.000000 24.364731 22.545309 14.441690 # Si 
263  3 0.000000 26.180500 25.731899 14.429280 # Si 
264  3 0.000000 27.816240 29.120020 14.470110 # Si 
265  3 0.000000 18.878059 6.696990 14.540870 # Si 
266  3 0.000000 20.676720 9.889170 14.448260 # Si 
267  3 0.000000 22.498779 13.056230 14.448950 # Si 
268  3 0.000000 24.321119 16.226219 14.464810 # Si 
269  3 0.000000 26.165199 19.376860 14.453380 # Si 
270  3 0.000000 28.032120 22.524929 14.428850 # Si 
271  3 0.000000 29.820580 25.695850 14.460840 # Si 
272  3 0.000000 22.507299 6.722690 14.509480 # Si 
273  3 0.000000 24.320080 9.885920 14.421830 # Si 
274  3 0.000000 26.124210 13.067570 14.454220 # Si 
275  3 0.000000 27.958660 16.211571 14.459220 # Si 
276  3 0.000000 29.798361 19.334049 14.494430 # Si 
277  3 0.000000 31.784060 22.248020 14.469460 # Si 
278  3 0.000000 27.970119 9.940800 14.457540 # Si 
279  3 0.000000 29.781269 13.079180 14.460040 # Si 
280  3 0.000000 31.617350 16.203260 14.477180 # Si 
281  3 0.000000 4.351510 19.360760 16.729469 # Si 
282  3 0.000000 6.140400 22.507681 16.746140 # Si 
283  3 0.000000 7.979830 25.699020 16.750750 # Si 
284  3 0.000000 9.799740 28.824430 16.730820 # Si 
285  3 0.000000 6.174160 16.225969 16.697130 # Si 
286  3 0.000000 7.984190 19.377621 16.691351 # Si 
287  3 0.000000 9.773390 22.535379 16.692249 # Si 
288  3 0.000000 11.603400 25.669781 16.685049 # Si 
289  3 0.000000 13.412270 28.811140 16.662020 # Si 
290  3 0.000000 15.220740 31.948580 16.668970 # Si 
291  3 0.000000 7.982110 13.085840 16.713690 # Si 
292  3 0.000000 9.802330 16.232460 16.701620 # Si 
293  3 0.000000 11.607680 19.383551 16.691891 # Si 
294  3 0.000000 13.416940 22.527451 16.686790 # Si 
295  3 0.000000 15.233520 25.669750 16.683460 # Si 
296  3 0.000000 17.050890 28.808029 16.678820 # Si 
297  3 0.000000 18.869471 31.978149 16.687519 # Si 
298  3 0.000000 9.797450 9.949990 16.696600 # Si 
299  3 0.000000 11.617080 13.088970 16.701139 # Si 
300  3 0.000000 13.431220 16.232370 16.701719 # Si 
301  3 0.000000 15.242770 19.379780 16.698940 # Si 
302  3 0.000000 17.057011 22.525141 16.696159 # Si 
303  3 0.000000 18.872511 25.667021 16.692890 # Si 
304  3 0.000000 20.680571 28.811979 16.684240 # Si 
305  3 0.000000 22.503759 31.953541 16.688360 # Si 
306  3 0.000000 11.601080 6.804130 16.728621 # Si 
307  3 0.000000 13.431950 9.941750 16.690340 # Si 
308  3 0.000000 15.248430 13.077280 16.690901 # Si 
309  3 0.000000 17.062220 16.228069 16.698460 # Si 
310  3 0.000000 18.878290 19.378040 16.699060 # Si 
311  3 0.000000 20.697880 22.525320 16.692320 # Si 
312  3 0.000000 22.511950 25.671450 16.683870 # Si 
313  3 0.000000 24.311460 28.809610 16.707331 # Si 
314  3 0.000000 15.221050 6.780070 16.744619 # Si 
315  3 0.000000 17.061230 9.912760 16.690880 # Si 
316  3 0.000000 18.875521 13.072590 16.685699 # Si 
317  3 0.000000 20.692940 16.226740 16.695560 # Si 
318  3 0.000000 22.513470 19.380030 16.692051 # Si 
319  3 0.000000 24.342020 22.532391 16.674360 # Si 
320  3 0.000000 26.161261 25.690479 16.664000 # Si 
321  3 0.000000 27.945450 28.882490 16.687149 # Si 
322  3 0.000000 18.904480 6.777770 16.748819 # Si 
323  3 0.000000 20.690531 9.930810 16.683720 # Si 
324  3 0.000000 22.504869 13.074860 16.682640 # Si 
325  3 0.000000 24.321510 16.227859 16.692301 # Si 
326  3 0.000000 26.145189 19.377640 16.683229 # Si 
327  3 0.000000 27.986570 22.528721 16.663561 # Si 
328  3 0.000000 29.810329 25.689360 16.682791 # Si 
329  3 0.000000 22.520941 6.791490 16.729099 # Si 
330  3 0.000000 24.315121 9.926900 16.661051 # Si 
331  3 0.000000 26.131130 13.079560 16.678169 # Si 
332  3 0.000000 27.949280 16.221090 16.683229 # Si 
333  3 0.000000 29.762871 19.366989 16.706160 # Si 
334  3 0.000000 31.643120 22.477720 16.686560 # Si 
335  3 0.000000 27.936050 9.924650 16.667740 # Si 
336  3 0.000000 29.785730 13.069710 16.686310 # Si 
337  3 0.000000 31.581921 16.229481 16.686649 # Si 
338  3 0.000000 4.234730 23.406460 17.486959 # Si 
339  3 0.000000 6.248330 26.895639 17.497641 # Si 
340  3 0.000000 4.352270 17.261450 17.427879 # Si 
341  3 0.000000 6.176110 20.411680 17.453690 # Si 
342  3 0.000000 7.958770 23.585991 17.459480 # Si 
343  3 0.000000 9.811770 26.722469 17.462339 # Si 
344  3 0.000000 11.617070 29.873590 17.432510 # Si 
345  3 0.000000 6.160190 14.131150 17.459511 # Si 
346  3 0.000000 7.989030 17.279360 17.442600 # Si 
347  3 0.000000 9.793180 20.434059 17.437580 # Si 
348  3 0.000000 11.601360 23.575279 17.434589 # Si 
349  3 0.000000 13.419990 26.718430 17.429079 # Si 
350  3 0.000000 15.230190 29.849230 17.407570 # Si 
351  3 0.000000 17.021980 33.022999 17.386330 # Si 
352  3 0.000000 7.976420 10.985230 17.459270 # Si 
353  3 0.000000 9.799140 14.134930 17.458799 # Si 
354  3 0.000000 11.614760 17.283991 17.447371 # Si 
355  3 0.000000 13.424750 20.430531 17.439960 # Si 
356  3 0.000000 15.237230 23.574520 17.437990 # Si 
357  3 0.000000 17.053921 26.715080 17.434160 # Si 
358  3 0.000000 18.866659 29.868790 17.416731 # Si 
359  3 0.000000 20.709650 33.029369 17.400181 # Si 
360  3 0.000000 9.783550 7.854430 17.427299 # Si 
361  3 0.000000 11.617270 10.995010 17.441799 # Si 
362  3 0.000000 13.433750 14.133250 17.446659 # Si 
363  3 0.000000 15.246720 17.281050 17.446871 # Si 
364  3 0.000000 17.060221 20.427879 17.445539 # Si 
365  3 0.000000 18.876770 23.571621 17.442020 # Si 
366  3 0.000000 20.689810 26.715891 17.433849 # Si 
367  3 0.000000 22.496420 29.852160 17.427401 # Si 
368  3 0.000000 13.423810 7.858860 17.452629 # Si 
369  3 0.000000 15.251310 10.980500 17.436319 # Si 
370  3 0.000000 17.063360 14.128020 17.438801 # Si 
371  3 0.000000 18.878220 17.278629 17.445030 # Si 
372  3 0.000000 20.695881 20.427620 17.441561 # Si 
373  3 0.000000 22.517490 23.573771 17.429251 # Si 
374  3 0.000000 24.330050 26.711840 17.428949 # Si 
375  3 0.000000 26.118589 29.873871 17.455250 # Si 
376  3 0.000000 15.046910 4.680220 17.485060 # Si 
377  3 0.000000 17.064131 7.815980 17.458031 # Si 
378  3 0.000000 18.875580 10.976290 17.433399 # Si 
379  3 0.000000 20.692070 14.125940 17.437059 # Si 
380  3 0.000000 22.508860 17.279690 17.441420 # Si 
381  3 0.000000 24.331310 20.431561 17.428841 # Si 
382  3 0.000000 26.162689 23.583509 17.408440 # Si 
383  3 0.000000 27.978809 26.750589 17.404430 # Si 
384  3 0.000000 19.075260 4.679840 17.495110 # Si 
385  3 0.000000 20.706591 7.852950 17.460951 # Si 
386  3 0.000000 22.506611 10.980050 17.428480 # Si 
387  3 0.000000 24.319969 14.128840 17.433769 # Si 
388  3 0.000000 26.138460 17.277241 17.433020 # Si 
389  3 0.000000 27.955360 20.431971 17.427940 # Si 
390  3 0.000000 29.813540 23.572479 17.404020 # Si 
391  3 0.000000 24.337709 7.841230 17.432051 # Si 
392  3 0.000000 26.122641 10.982320 17.407591 # Si 
393  3 0.000000 27.957439 14.121750 17.416090 # Si 
394  3 0.000000 29.758181 17.273581 17.425770 # Si 
395  3 0.000000 31.588230 20.399679 17.454000 # Si 
396  3 0.000000 29.766649 10.947530 17.386049 # Si 
397  3 0.000000 31.616449 14.137630 17.398130 # Si 
398  3 0.000000 4.320490 23.566481 19.691420 # Si 
399  3 0.000000 6.169340 26.757999 19.704029 # Si 
400  3 0.000000 4.353560 17.305201 19.639900 # Si 
401  3 0.000000 6.180730 20.431110 19.667351 # Si 
402  3 0.000000 7.978980 23.583891 19.677549 # Si 
403  3 0.000000 9.813740 26.723961 19.684370 # Si 
404  3 0.000000 11.600400 29.864740 19.656719 # Si 
405  3 0.000000 6.131610 14.134150 19.697620 # Si 
406  3 0.000000 7.986990 17.273750 19.672449 # Si 
407  3 0.000000 9.800540 20.428881 19.668949 # Si 
408  3 0.000000 11.617190 23.577440 19.667360 # Si 
409  3 0.000000 13.431060 26.724791 19.667480 # Si 
410  3 0.000000 15.232470 29.850439 19.629539 # Si 
411  3 0.000000 16.864090 33.023628 19.592400 # Si 
412  3 0.000000 7.965310 10.958490 19.697390 # Si 
413  3 0.000000 9.781270 14.124520 19.695959 # Si 
414  3 0.000000 11.610830 17.276260 19.681129 # Si 
415  3 0.000000 13.430670 20.427910 19.672710 # Si 
416  3 0.000000 15.246470 23.579130 19.673201 # Si 
417  3 0.000000 17.063480 26.726021 19.667490 # Si 
418  3 0.000000 18.875290 29.886379 19.635080 # Si 
419  3 0.000000 20.891970 33.023151 19.604580 # Si 
420  3 0.000000 9.823150 7.833460 19.639330 # Si 
421  3 0.000000 11.611860 10.996010 19.671591 # Si 
422  3 0.000000 13.424800 14.134260 19.680269 # Si 
423  3 0.000000 15.244950 17.281050 19.678659 # Si 
424  3 0.000000 17.060619 20.428570 19.677999 # Si 
425  3 0.000000 18.875429 23.575781 19.675289 # Si 
426  3 0.000000 20.688210 26.722281 19.665270 # Si 
427  3 0.000000 22.515539 29.845051 19.641121 # Si 
428  3 0.000000 13.444130 7.853520 19.666439 # Si 
429  3 0.000000 15.250790 10.990020 19.667650 # Si 
430  3 0.000000 17.063379 14.135520 19.671360 # Si 
431  3 0.000000 18.877661 17.280540 19.677401 # Si 
432  3 0.000000 20.690559 20.425791 19.673731 # Si 
433  3 0.000000 22.505550 23.571850 19.662300 # Si 
434  3 0.000000 24.322990 26.710711 19.657560 # Si 
435  3 0.000000 26.156441 29.852100 19.666960 # Si 
436  3 0.000000 15.229650 4.674770 19.689510 # Si 
437  3 0.000000 17.073179 7.835270 19.676399 # Si 
438  3 0.000000 18.885250 10.989850 19.666410 # Si 
439  3 0.000000 20.699640 14.132790 19.672331 # Si 
440  3 0.000000 22.510370 17.277691 19.674669 # Si 
441  3 0.000000 24.322901 20.422840 19.661819 # Si 
442  3 0.000000 26.141821 23.571659 19.643511 # Si 
443  3 0.000000 27.965281 26.722450 19.640791 # Si 
444  3 0.000000 18.917500 4.680750 19.701620 # Si 
445  3 0.000000 20.708780 7.855070 19.683420 # Si 
446  3 0.000000 22.516899 10.987660 19.667500 # Si 
447  3 0.000000 24.332880 14.132430 19.667521 # Si 
448  3 0.000000 26.142071 17.272850 19.664450 # Si 
449  3 0.000000 27.950371 20.426359 19.656330 # Si 
450  3 0.000000 29.782410 23.574450 19.640320 # Si 
451  3 0.000000 24.320690 7.832300 19.656981 # Si 
452  3 0.000000 26.123440 10.984640 19.630619 # Si 
453  3 0.000000 27.975800 14.120500 19.634880 # Si 
454  3 0.000000 29.761000 17.293249 19.639280 # Si 
455  3 0.000000 31.588091 20.442730 19.665600 # Si 
456  3 0.000000 29.686991 10.810600 19.592739 # Si 
457  3 0.000000 31.701719 14.297870 19.602501 # Si 
458  3 0.000000 4.356240 21.474670 20.403740 # Si 
459  3 0.000000 6.150230 24.635710 20.404360 # Si 
460  3 0.000000 7.999990 27.781509 20.421721 # Si 
461  3 0.000000 4.300600 15.228230 20.410160 # Si 
462  3 0.000000 6.178180 18.338310 20.389490 # Si 
463  3 0.000000 7.988260 21.484720 20.411989 # Si 
464  3 0.000000 9.804830 24.627150 20.415701 # Si 
465  3 0.000000 11.621860 27.779600 20.429310 # Si 
466  3 0.000000 13.418130 30.913879 20.357401 # Si 
467  3 0.000000 6.136700 12.019760 20.426809 # Si 
468  3 0.000000 7.957820 15.178100 20.441570 # Si 
469  3 0.000000 9.795950 18.329050 20.422050 # Si 
470  3 0.000000 11.616680 21.479401 20.413460 # Si 
471  3 0.000000 13.432610 24.631130 20.419390 # Si 
472  3 0.000000 15.247910 27.773100 20.410950 # Si 
473  3 0.000000 17.034710 30.925831 20.340290 # Si 
474  3 0.000000 7.998020 8.825680 20.410049 # Si 
475  3 0.000000 9.782450 12.018320 20.441071 # Si 
476  3 0.000000 11.601170 15.175890 20.435949 # Si 
477  3 0.000000 13.427620 18.328791 20.425381 # Si 
478  3 0.000000 15.245970 21.480471 20.423889 # Si 
479  3 0.000000 17.063070 24.631180 20.425369 # Si 
480  3 0.000000 18.878000 27.789930 20.407591 # Si 
481  3 0.000000 20.717911 30.923389 20.347370 # Si 
482  3 0.000000 11.630410 8.897280 20.388910 # Si 
483  3 0.000000 13.429870 12.035820 20.420630 # Si 
484  3 0.000000 15.243870 15.182990 20.423870 # Si 
485  3 0.000000 17.061100 18.330780 20.428459 # Si 
486  3 0.000000 18.875750 21.477961 20.426661 # Si 
487  3 0.000000 20.690660 24.626499 20.418961 # Si 
488  3 0.000000 22.507441 27.762630 20.407270 # Si 
489  3 0.000000 24.337709 30.900961 20.363720 # Si 
490  3 0.000000 13.436320 5.751600 20.402559 # Si 
491  3 0.000000 15.260180 8.892880 20.411449 # Si 
492  3 0.000000 17.067989 12.038530 20.412050 # Si 
493  3 0.000000 18.881720 15.182730 20.422159 # Si 
494  3 0.000000 20.693670 18.328360 20.425880 # Si 
495  3 0.000000 22.506750 21.473789 20.413191 # Si 
496  3 0.000000 24.323111 24.617001 20.400990 # Si 
497  3 0.000000 26.142780 27.756889 20.399759 # Si 
498  3 0.000000 17.070299 5.725410 20.402611 # Si 
499  3 0.000000 18.888800 8.895880 20.415810 # Si 
500  3 0.000000 20.704510 12.036040 20.419371 # Si 
501  3 0.000000 22.518280 15.180520 20.424860 # Si 
502  3 0.000000 24.328091 18.323740 20.418140 # Si 
503  3 0.000000 26.137220 21.473841 20.400040 # Si 
504  3 0.000000 27.959801 24.620810 20.384581 # Si 
505  3 0.000000 20.718651 5.755300 20.419680 # Si 
506  3 0.000000 22.525789 8.894060 20.430300 # Si 
507  3 0.000000 24.332199 12.037160 20.412840 # Si 
508  3 0.000000 26.161221 15.171450 20.407780 # Si 
509  3 0.000000 27.953239 18.327789 20.405130 # Si 
510  3 0.000000 29.766689 21.478649 20.398380 # Si 
511  3 0.000000 26.136801 8.882400 20.360371 # Si 
512  3 0.000000 27.955370 12.007430 20.342440 # Si 
513  3 0.000000 29.795940 15.197120 20.345490 # Si 
514  3 0.000000 31.586861 18.342939 20.361450 # Si 
515  3 0.000000 4.320850 21.500811 22.613079 # Si 
516  3 0.000000 6.155090 24.626141 22.630320 # Si 
517  3 0.000000 7.966270 27.766069 22.631420 # Si 
518  3 0.000000 4.160190 15.458080 22.626921 # Si 
519  3 0.000000 6.143660 18.371389 22.601391 # Si 
520  3 0.000000 7.979690 21.493999 22.635250 # Si 
521  3 0.000000 9.812360 24.639771 22.638229 # Si 
522  3 0.000000 11.617090 27.822309 22.666969 # Si 
523  3 0.000000 13.431770 30.984631 22.575809 # Si 
524  3 0.000000 6.131900 12.016020 22.652460 # Si 
525  3 0.000000 7.915750 15.182860 22.679480 # Si 
526  3 0.000000 9.779620 18.330360 22.653460 # Si 
527  3 0.000000 11.620040 21.482059 22.641300 # Si 
528  3 0.000000 13.439810 24.649910 22.653080 # Si 
529  3 0.000000 15.262010 27.814369 22.645741 # Si 
530  3 0.000000 17.060940 31.007271 22.547331 # Si 
531  3 0.000000 8.128600 8.588330 22.626740 # Si 
532  3 0.000000 9.766200 11.979250 22.678909 # Si 
533  3 0.000000 11.583340 15.166090 22.671379 # Si 
534  3 0.000000 13.440130 18.301451 4.799470 # Si 
535  3 0.000000 13.424440 18.325930 22.657900 # Si 
536  3 0.000000 15.297020 21.487970 4.800230 # Si 
537  3 0.000000 15.248590 21.483500 22.657841 # Si 
538  3 0.000000 17.067640 24.644100 22.662470 # Si 
539  3 0.000000 18.886890 27.815720 22.644190 # Si 
540  3 0.000000 20.708450 31.001381 22.553040 # Si 
541  3 0.000000 11.643610 8.851180 22.601110 # Si 
542  3 0.000000 13.423160 12.021840 22.651760 # Si 
543  3 0.000000 15.229090 15.203080 4.799330 # Si 
544  3 0.000000 15.238610 15.184220 22.655790 # Si 
545  3 0.000000 17.063410 18.327950 4.818590 # Si 
546  3 0.000000 17.058969 18.332911 22.663389 # Si 
547  3 0.000000 18.877239 21.464861 4.816570 # Si 
548  3 0.000000 18.872881 21.479940 22.661890 # Si 
549  3 0.000000 20.688030 24.636450 22.654360 # Si 
550  3 0.000000 22.504570 27.798441 22.639380 # Si 
551  3 0.000000 24.338280 30.963440 22.578590 # Si 
552  3 0.000000 13.442830 5.708400 22.611950 # Si 
553  3 0.000000 15.265580 8.882240 22.635410 # Si 
554  3 0.000000 17.071791 12.041610 22.639910 # Si 
555  3 0.000000 18.917061 15.218250 4.800030 # Si 
556  3 0.000000 18.883570 15.186640 22.655560 # Si 
557  3 0.000000 20.686911 18.330420 4.816630 # Si 
558  3 0.000000 20.691010 18.329121 22.660870 # Si 
559  3 0.000000 22.387920 21.401911 4.578900 # Si 
560  3 0.000000 22.501499 21.471979 22.645161 # Si 
561  3 0.000000 24.313919 24.625490 22.631660 # Si 
562  3 0.000000 26.136200 27.777750 22.628300 # Si 
563  3 0.000000 17.065470 5.735420 22.628780 # Si 
564  3 0.000000 18.903660 8.897920 22.639561 # Si 
565  3 0.000000 20.723089 12.034930 22.653860 # Si 
566  3 0.000000 22.528700 15.180660 22.662170 # Si 
567  3 0.000000 24.333250 18.317690 22.653509 # Si 
568  3 0.000000 26.139179 21.462231 22.630400 # Si 
569  3 0.000000 27.952829 24.616671 22.618000 # Si 
570  3 0.000000 20.688530 5.734900 22.629530 # Si 
571  3 0.000000 22.558491 8.871000 22.669371 # Si 
572  3 0.000000 24.372259 12.030860 22.649330 # Si 
573  3 0.000000 26.185181 15.167200 22.645069 # Si 